V -t * -v 1.0a5 -a 0
A -t * -n 1 -p 0 -o 0x7fffffff -c 30 -a 1
A -t * -h 1 -m 1073741823 -s 0
c -t * -i 1 -n Blue
c -t * -i 2 -n Red
n -t * -a 4 -s 4 -S UP -v circle -c black -i black
n -t * -a 0 -s 0 -S UP -v circle -c black -i black
n -t * -a 5 -s 5 -S UP -v circle -c black -i black
n -t * -a 1 -s 1 -S UP -v circle -c black -i black
n -t * -a 2 -s 2 -S UP -v circle -c black -i black
n -t * -a 3 -s 3 -S UP -v circle -c black -i black
l -t * -s 0 -d 1 -S UP -r 1000000 -D 0.002 -c black
l -t * -s 0 -d 2 -S UP -r 1000000 -D 0.01 -c black
l -t * -s 1 -d 2 -S UP -r 1000000 -D 0.01 -c black
l -t * -s 1 -d 4 -S UP -r 1000000 -D 0.002 -c black
l -t * -s 2 -d 3 -S UP -r 1000000 -D 0.01 -c black
l -t * -s 3 -d 5 -S UP -r 1000000 -D 0.01 -c black
l -t * -s 3 -d 4 -S UP -r 1000000 -D 0.01 -c black
l -t * -s 4 -d 5 -S UP -r 1000000 -D 0.0030000000000000001 -c black
+ -t 0.000169788487334637 -s 0 -d 1 -p rtProtoDV -e 6 -c 0 -i 0 -a 0 -x {0.2 1.1 -1 ------- null}
- -t 0.000169788487334637 -s 0 -d 1 -p rtProtoDV -e 6 -c 0 -i 0 -a 0 -x {0.2 1.1 -1 ------- null}
h -t 0.000169788487334637 -s 0 -d 1 -p rtProtoDV -e 6 -c 0 -i 0 -a 0 -x {0.2 1.1 -1 ------- null}
+ -t 0.000169788487334637 -s 0 -d 2 -p rtProtoDV -e 6 -c 0 -i 1 -a 0 -x {0.2 2.1 -1 ------- null}
- -t 0.000169788487334637 -s 0 -d 2 -p rtProtoDV -e 6 -c 0 -i 1 -a 0 -x {0.2 2.1 -1 ------- null}
h -t 0.000169788487334637 -s 0 -d 2 -p rtProtoDV -e 6 -c 0 -i 1 -a 0 -x {0.2 2.1 -1 ------- null}
r -t 0.00221778848733464 -s 0 -d 1 -p rtProtoDV -e 6 -c 0 -i 0 -a 0 -x {0.2 1.1 -1 ------- null}
+ -t 0.00710233021858257 -s 2 -d 0 -p rtProtoDV -e 6 -c 0 -i 2 -a 0 -x {2.1 0.2 -1 ------- null}
- -t 0.00710233021858257 -s 2 -d 0 -p rtProtoDV -e 6 -c 0 -i 2 -a 0 -x {2.1 0.2 -1 ------- null}
h -t 0.00710233021858257 -s 2 -d 0 -p rtProtoDV -e 6 -c 0 -i 2 -a 0 -x {2.1 0.2 -1 ------- null}
+ -t 0.00710233021858257 -s 2 -d 1 -p rtProtoDV -e 6 -c 0 -i 3 -a 0 -x {2.1 1.1 -1 ------- null}
- -t 0.00710233021858257 -s 2 -d 1 -p rtProtoDV -e 6 -c 0 -i 3 -a 0 -x {2.1 1.1 -1 ------- null}
h -t 0.00710233021858257 -s 2 -d 1 -p rtProtoDV -e 6 -c 0 -i 3 -a 0 -x {2.1 1.1 -1 ------- null}
+ -t 0.00710233021858257 -s 2 -d 3 -p rtProtoDV -e 6 -c 0 -i 4 -a 0 -x {2.1 3.1 -1 ------- null}
- -t 0.00710233021858257 -s 2 -d 3 -p rtProtoDV -e 6 -c 0 -i 4 -a 0 -x {2.1 3.1 -1 ------- null}
h -t 0.00710233021858257 -s 2 -d 3 -p rtProtoDV -e 6 -c 0 -i 4 -a 0 -x {2.1 3.1 -1 ------- null}
r -t 0.0102177884873346 -s 0 -d 2 -p rtProtoDV -e 6 -c 0 -i 1 -a 0 -x {0.2 2.1 -1 ------- null}
r -t 0.0171503302185826 -s 2 -d 0 -p rtProtoDV -e 6 -c 0 -i 2 -a 0 -x {2.1 0.2 -1 ------- null}
+ -t 0.0171503302185826 -s 0 -d 1 -p rtProtoDV -e 6 -c 0 -i 5 -a 0 -x {0.2 1.1 -1 ------- null}
- -t 0.0171503302185826 -s 0 -d 1 -p rtProtoDV -e 6 -c 0 -i 5 -a 0 -x {0.2 1.1 -1 ------- null}
h -t 0.0171503302185826 -s 0 -d 1 -p rtProtoDV -e 6 -c 0 -i 5 -a 0 -x {0.2 1.1 -1 ------- null}
+ -t 0.0171503302185826 -s 0 -d 2 -p rtProtoDV -e 6 -c 0 -i 6 -a 0 -x {0.2 2.1 -1 ------- null}
- -t 0.0171503302185826 -s 0 -d 2 -p rtProtoDV -e 6 -c 0 -i 6 -a 0 -x {0.2 2.1 -1 ------- null}
h -t 0.0171503302185826 -s 0 -d 2 -p rtProtoDV -e 6 -c 0 -i 6 -a 0 -x {0.2 2.1 -1 ------- null}
r -t 0.0171503302185826 -s 2 -d 1 -p rtProtoDV -e 6 -c 0 -i 3 -a 0 -x {2.1 1.1 -1 ------- null}
+ -t 0.0171503302185826 -s 1 -d 0 -p rtProtoDV -e 6 -c 0 -i 7 -a 0 -x {1.1 0.2 -1 ------- null}
- -t 0.0171503302185826 -s 1 -d 0 -p rtProtoDV -e 6 -c 0 -i 7 -a 0 -x {1.1 0.2 -1 ------- null}
h -t 0.0171503302185826 -s 1 -d 0 -p rtProtoDV -e 6 -c 0 -i 7 -a 0 -x {1.1 0.2 -1 ------- null}
+ -t 0.0171503302185826 -s 1 -d 2 -p rtProtoDV -e 6 -c 0 -i 8 -a 0 -x {1.1 2.1 -1 ------- null}
- -t 0.0171503302185826 -s 1 -d 2 -p rtProtoDV -e 6 -c 0 -i 8 -a 0 -x {1.1 2.1 -1 ------- null}
h -t 0.0171503302185826 -s 1 -d 2 -p rtProtoDV -e 6 -c 0 -i 8 -a 0 -x {1.1 2.1 -1 ------- null}
+ -t 0.0171503302185826 -s 1 -d 4 -p rtProtoDV -e 6 -c 0 -i 9 -a 0 -x {1.1 4.1 -1 ------- null}
- -t 0.0171503302185826 -s 1 -d 4 -p rtProtoDV -e 6 -c 0 -i 9 -a 0 -x {1.1 4.1 -1 ------- null}
h -t 0.0171503302185826 -s 1 -d 4 -p rtProtoDV -e 6 -c 0 -i 9 -a 0 -x {1.1 4.1 -1 ------- null}
r -t 0.0171503302185826 -s 2 -d 3 -p rtProtoDV -e 6 -c 0 -i 4 -a 0 -x {2.1 3.1 -1 ------- null}
+ -t 0.0171503302185826 -s 3 -d 2 -p rtProtoDV -e 6 -c 0 -i 10 -a 0 -x {3.1 2.1 -1 ------- null}
- -t 0.0171503302185826 -s 3 -d 2 -p rtProtoDV -e 6 -c 0 -i 10 -a 0 -x {3.1 2.1 -1 ------- null}
h -t 0.0171503302185826 -s 3 -d 2 -p rtProtoDV -e 6 -c 0 -i 10 -a 0 -x {3.1 2.1 -1 ------- null}
+ -t 0.0171503302185826 -s 3 -d 4 -p rtProtoDV -e 6 -c 0 -i 11 -a 0 -x {3.1 4.1 -1 ------- null}
- -t 0.0171503302185826 -s 3 -d 4 -p rtProtoDV -e 6 -c 0 -i 11 -a 0 -x {3.1 4.1 -1 ------- null}
h -t 0.0171503302185826 -s 3 -d 4 -p rtProtoDV -e 6 -c 0 -i 11 -a 0 -x {3.1 4.1 -1 ------- null}
+ -t 0.0171503302185826 -s 3 -d 5 -p rtProtoDV -e 6 -c 0 -i 12 -a 0 -x {3.1 5.2 -1 ------- null}
- -t 0.0171503302185826 -s 3 -d 5 -p rtProtoDV -e 6 -c 0 -i 12 -a 0 -x {3.1 5.2 -1 ------- null}
h -t 0.0171503302185826 -s 3 -d 5 -p rtProtoDV -e 6 -c 0 -i 12 -a 0 -x {3.1 5.2 -1 ------- null}
r -t 0.0191983302185826 -s 0 -d 1 -p rtProtoDV -e 6 -c 0 -i 5 -a 0 -x {0.2 1.1 -1 ------- null}
r -t 0.0191983302185826 -s 1 -d 0 -p rtProtoDV -e 6 -c 0 -i 7 -a 0 -x {1.1 0.2 -1 ------- null}
+ -t 0.0191983302185826 -s 0 -d 1 -p rtProtoDV -e 6 -c 0 -i 13 -a 0 -x {0.2 1.1 -1 ------- null}
- -t 0.0191983302185826 -s 0 -d 1 -p rtProtoDV -e 6 -c 0 -i 13 -a 0 -x {0.2 1.1 -1 ------- null}
h -t 0.0191983302185826 -s 0 -d 1 -p rtProtoDV -e 6 -c 0 -i 13 -a 0 -x {0.2 1.1 -1 ------- null}
+ -t 0.0191983302185826 -s 0 -d 2 -p rtProtoDV -e 6 -c 0 -i 14 -a 0 -x {0.2 2.1 -1 ------- null}
- -t 0.0191983302185826 -s 0 -d 2 -p rtProtoDV -e 6 -c 0 -i 14 -a 0 -x {0.2 2.1 -1 ------- null}
h -t 0.0191983302185826 -s 0 -d 2 -p rtProtoDV -e 6 -c 0 -i 14 -a 0 -x {0.2 2.1 -1 ------- null}
r -t 0.0191983302185826 -s 1 -d 4 -p rtProtoDV -e 6 -c 0 -i 9 -a 0 -x {1.1 4.1 -1 ------- null}
+ -t 0.0191983302185826 -s 4 -d 1 -p rtProtoDV -e 6 -c 0 -i 15 -a 0 -x {4.1 1.1 -1 ------- null}
- -t 0.0191983302185826 -s 4 -d 1 -p rtProtoDV -e 6 -c 0 -i 15 -a 0 -x {4.1 1.1 -1 ------- null}
h -t 0.0191983302185826 -s 4 -d 1 -p rtProtoDV -e 6 -c 0 -i 15 -a 0 -x {4.1 1.1 -1 ------- null}
+ -t 0.0191983302185826 -s 4 -d 3 -p rtProtoDV -e 6 -c 0 -i 16 -a 0 -x {4.1 3.1 -1 ------- null}
- -t 0.0191983302185826 -s 4 -d 3 -p rtProtoDV -e 6 -c 0 -i 16 -a 0 -x {4.1 3.1 -1 ------- null}
h -t 0.0191983302185826 -s 4 -d 3 -p rtProtoDV -e 6 -c 0 -i 16 -a 0 -x {4.1 3.1 -1 ------- null}
+ -t 0.0191983302185826 -s 4 -d 5 -p rtProtoDV -e 6 -c 0 -i 17 -a 0 -x {4.1 5.2 -1 ------- null}
- -t 0.0191983302185826 -s 4 -d 5 -p rtProtoDV -e 6 -c 0 -i 17 -a 0 -x {4.1 5.2 -1 ------- null}
h -t 0.0191983302185826 -s 4 -d 5 -p rtProtoDV -e 6 -c 0 -i 17 -a 0 -x {4.1 5.2 -1 ------- null}
r -t 0.0212463302185826 -s 0 -d 1 -p rtProtoDV -e 6 -c 0 -i 13 -a 0 -x {0.2 1.1 -1 ------- null}
r -t 0.0212463302185826 -s 4 -d 1 -p rtProtoDV -e 6 -c 0 -i 15 -a 0 -x {4.1 1.1 -1 ------- null}
+ -t 0.0212463302185826 -s 1 -d 0 -p rtProtoDV -e 6 -c 0 -i 18 -a 0 -x {1.1 0.2 -1 ------- null}
- -t 0.0212463302185826 -s 1 -d 0 -p rtProtoDV -e 6 -c 0 -i 18 -a 0 -x {1.1 0.2 -1 ------- null}
h -t 0.0212463302185826 -s 1 -d 0 -p rtProtoDV -e 6 -c 0 -i 18 -a 0 -x {1.1 0.2 -1 ------- null}
+ -t 0.0212463302185826 -s 1 -d 2 -p rtProtoDV -e 6 -c 0 -i 19 -a 0 -x {1.1 2.1 -1 ------- null}
- -t 0.0212463302185826 -s 1 -d 2 -p rtProtoDV -e 6 -c 0 -i 19 -a 0 -x {1.1 2.1 -1 ------- null}
h -t 0.0212463302185826 -s 1 -d 2 -p rtProtoDV -e 6 -c 0 -i 19 -a 0 -x {1.1 2.1 -1 ------- null}
+ -t 0.0212463302185826 -s 1 -d 4 -p rtProtoDV -e 6 -c 0 -i 20 -a 0 -x {1.1 4.1 -1 ------- null}
- -t 0.0212463302185826 -s 1 -d 4 -p rtProtoDV -e 6 -c 0 -i 20 -a 0 -x {1.1 4.1 -1 ------- null}
h -t 0.0212463302185826 -s 1 -d 4 -p rtProtoDV -e 6 -c 0 -i 20 -a 0 -x {1.1 4.1 -1 ------- null}
r -t 0.0222463302185826 -s 4 -d 5 -p rtProtoDV -e 6 -c 0 -i 17 -a 0 -x {4.1 5.2 -1 ------- null}
+ -t 0.0222463302185826 -s 5 -d 3 -p rtProtoDV -e 6 -c 0 -i 21 -a 0 -x {5.2 3.1 -1 ------- null}
- -t 0.0222463302185826 -s 5 -d 3 -p rtProtoDV -e 6 -c 0 -i 21 -a 0 -x {5.2 3.1 -1 ------- null}
h -t 0.0222463302185826 -s 5 -d 3 -p rtProtoDV -e 6 -c 0 -i 21 -a 0 -x {5.2 3.1 -1 ------- null}
+ -t 0.0222463302185826 -s 5 -d 4 -p rtProtoDV -e 6 -c 0 -i 22 -a 0 -x {5.2 4.1 -1 ------- null}
- -t 0.0222463302185826 -s 5 -d 4 -p rtProtoDV -e 6 -c 0 -i 22 -a 0 -x {5.2 4.1 -1 ------- null}
h -t 0.0222463302185826 -s 5 -d 4 -p rtProtoDV -e 6 -c 0 -i 22 -a 0 -x {5.2 4.1 -1 ------- null}
r -t 0.0232943302185826 -s 1 -d 0 -p rtProtoDV -e 6 -c 0 -i 18 -a 0 -x {1.1 0.2 -1 ------- null}
+ -t 0.0232943302185826 -s 0 -d 1 -p rtProtoDV -e 6 -c 0 -i 23 -a 0 -x {0.2 1.1 -1 ------- null}
- -t 0.0232943302185826 -s 0 -d 1 -p rtProtoDV -e 6 -c 0 -i 23 -a 0 -x {0.2 1.1 -1 ------- null}
h -t 0.0232943302185826 -s 0 -d 1 -p rtProtoDV -e 6 -c 0 -i 23 -a 0 -x {0.2 1.1 -1 ------- null}
+ -t 0.0232943302185826 -s 0 -d 2 -p rtProtoDV -e 6 -c 0 -i 24 -a 0 -x {0.2 2.1 -1 ------- null}
- -t 0.0232943302185826 -s 0 -d 2 -p rtProtoDV -e 6 -c 0 -i 24 -a 0 -x {0.2 2.1 -1 ------- null}
h -t 0.0232943302185826 -s 0 -d 2 -p rtProtoDV -e 6 -c 0 -i 24 -a 0 -x {0.2 2.1 -1 ------- null}
r -t 0.0232943302185826 -s 1 -d 4 -p rtProtoDV -e 6 -c 0 -i 20 -a 0 -x {1.1 4.1 -1 ------- null}
r -t 0.0252943302185826 -s 5 -d 4 -p rtProtoDV -e 6 -c 0 -i 22 -a 0 -x {5.2 4.1 -1 ------- null}
r -t 0.0253423302185826 -s 0 -d 1 -p rtProtoDV -e 6 -c 0 -i 23 -a 0 -x {0.2 1.1 -1 ------- null}
r -t 0.0271983302185826 -s 0 -d 2 -p rtProtoDV -e 6 -c 0 -i 6 -a 0 -x {0.2 2.1 -1 ------- null}
r -t 0.0271983302185826 -s 1 -d 2 -p rtProtoDV -e 6 -c 0 -i 8 -a 0 -x {1.1 2.1 -1 ------- null}
+ -t 0.0271983302185826 -s 2 -d 0 -p rtProtoDV -e 6 -c 0 -i 25 -a 0 -x {2.1 0.2 -1 ------- null}
- -t 0.0271983302185826 -s 2 -d 0 -p rtProtoDV -e 6 -c 0 -i 25 -a 0 -x {2.1 0.2 -1 ------- null}
h -t 0.0271983302185826 -s 2 -d 0 -p rtProtoDV -e 6 -c 0 -i 25 -a 0 -x {2.1 0.2 -1 ------- null}
+ -t 0.0271983302185826 -s 2 -d 1 -p rtProtoDV -e 6 -c 0 -i 26 -a 0 -x {2.1 1.1 -1 ------- null}
- -t 0.0271983302185826 -s 2 -d 1 -p rtProtoDV -e 6 -c 0 -i 26 -a 0 -x {2.1 1.1 -1 ------- null}
h -t 0.0271983302185826 -s 2 -d 1 -p rtProtoDV -e 6 -c 0 -i 26 -a 0 -x {2.1 1.1 -1 ------- null}
+ -t 0.0271983302185826 -s 2 -d 3 -p rtProtoDV -e 6 -c 0 -i 27 -a 0 -x {2.1 3.1 -1 ------- null}
- -t 0.0271983302185826 -s 2 -d 3 -p rtProtoDV -e 6 -c 0 -i 27 -a 0 -x {2.1 3.1 -1 ------- null}
h -t 0.0271983302185826 -s 2 -d 3 -p rtProtoDV -e 6 -c 0 -i 27 -a 0 -x {2.1 3.1 -1 ------- null}
r -t 0.0271983302185826 -s 3 -d 2 -p rtProtoDV -e 6 -c 0 -i 10 -a 0 -x {3.1 2.1 -1 ------- null}
+ -t 0.0271983302185826 -s 2 -d 0 -p rtProtoDV -e 6 -c 0 -i 28 -a 0 -x {2.1 0.2 -1 ------- null}
+ -t 0.0271983302185826 -s 2 -d 1 -p rtProtoDV -e 6 -c 0 -i 29 -a 0 -x {2.1 1.1 -1 ------- null}
+ -t 0.0271983302185826 -s 2 -d 3 -p rtProtoDV -e 6 -c 0 -i 30 -a 0 -x {2.1 3.1 -1 ------- null}
r -t 0.0271983302185826 -s 3 -d 4 -p rtProtoDV -e 6 -c 0 -i 11 -a 0 -x {3.1 4.1 -1 ------- null}
r -t 0.0271983302185826 -s 3 -d 5 -p rtProtoDV -e 6 -c 0 -i 12 -a 0 -x {3.1 5.2 -1 ------- null}
+ -t 0.0271983302185826 -s 5 -d 3 -p rtProtoDV -e 6 -c 0 -i 31 -a 0 -x {5.2 3.1 -1 ------- null}
- -t 0.0271983302185826 -s 5 -d 3 -p rtProtoDV -e 6 -c 0 -i 31 -a 0 -x {5.2 3.1 -1 ------- null}
h -t 0.0271983302185826 -s 5 -d 3 -p rtProtoDV -e 6 -c 0 -i 31 -a 0 -x {5.2 3.1 -1 ------- null}
+ -t 0.0271983302185826 -s 5 -d 4 -p rtProtoDV -e 6 -c 0 -i 32 -a 0 -x {5.2 4.1 -1 ------- null}
- -t 0.0271983302185826 -s 5 -d 4 -p rtProtoDV -e 6 -c 0 -i 32 -a 0 -x {5.2 4.1 -1 ------- null}
h -t 0.0271983302185826 -s 5 -d 4 -p rtProtoDV -e 6 -c 0 -i 32 -a 0 -x {5.2 4.1 -1 ------- null}
- -t 0.0272463302185826 -s 2 -d 0 -p rtProtoDV -e 6 -c 0 -i 28 -a 0 -x {2.1 0.2 -1 ------- null}
h -t 0.0272463302185826 -s 2 -d 0 -p rtProtoDV -e 6 -c 0 -i 28 -a 0 -x {2.1 0.2 -1 ------- null}
- -t 0.0272463302185826 -s 2 -d 1 -p rtProtoDV -e 6 -c 0 -i 29 -a 0 -x {2.1 1.1 -1 ------- null}
h -t 0.0272463302185826 -s 2 -d 1 -p rtProtoDV -e 6 -c 0 -i 29 -a 0 -x {2.1 1.1 -1 ------- null}
- -t 0.0272463302185826 -s 2 -d 3 -p rtProtoDV -e 6 -c 0 -i 30 -a 0 -x {2.1 3.1 -1 ------- null}
h -t 0.0272463302185826 -s 2 -d 3 -p rtProtoDV -e 6 -c 0 -i 30 -a 0 -x {2.1 3.1 -1 ------- null}
r -t 0.0292463302185826 -s 0 -d 2 -p rtProtoDV -e 6 -c 0 -i 14 -a 0 -x {0.2 2.1 -1 ------- null}
r -t 0.0292463302185826 -s 4 -d 3 -p rtProtoDV -e 6 -c 0 -i 16 -a 0 -x {4.1 3.1 -1 ------- null}
r -t 0.0302463302185826 -s 5 -d 4 -p rtProtoDV -e 6 -c 0 -i 32 -a 0 -x {5.2 4.1 -1 ------- null}
r -t 0.0312943302185826 -s 1 -d 2 -p rtProtoDV -e 6 -c 0 -i 19 -a 0 -x {1.1 2.1 -1 ------- null}
r -t 0.0322943302185826 -s 5 -d 3 -p rtProtoDV -e 6 -c 0 -i 21 -a 0 -x {5.2 3.1 -1 ------- null}
r -t 0.0333423302185826 -s 0 -d 2 -p rtProtoDV -e 6 -c 0 -i 24 -a 0 -x {0.2 2.1 -1 ------- null}
r -t 0.0372463302185826 -s 2 -d 0 -p rtProtoDV -e 6 -c 0 -i 25 -a 0 -x {2.1 0.2 -1 ------- null}
r -t 0.0372463302185826 -s 2 -d 1 -p rtProtoDV -e 6 -c 0 -i 26 -a 0 -x {2.1 1.1 -1 ------- null}
r -t 0.0372463302185826 -s 2 -d 3 -p rtProtoDV -e 6 -c 0 -i 27 -a 0 -x {2.1 3.1 -1 ------- null}
r -t 0.0372463302185826 -s 5 -d 3 -p rtProtoDV -e 6 -c 0 -i 31 -a 0 -x {5.2 3.1 -1 ------- null}
r -t 0.0372943302185826 -s 2 -d 0 -p rtProtoDV -e 6 -c 0 -i 28 -a 0 -x {2.1 0.2 -1 ------- null}
r -t 0.0372943302185826 -s 2 -d 1 -p rtProtoDV -e 6 -c 0 -i 29 -a 0 -x {2.1 1.1 -1 ------- null}
r -t 0.0372943302185826 -s 2 -d 3 -p rtProtoDV -e 6 -c 0 -i 30 -a 0 -x {2.1 3.1 -1 ------- null}
+ -t 0.04406133552271 -s 3 -d 2 -p rtProtoDV -e 6 -c 0 -i 33 -a 0 -x {3.1 2.1 -1 ------- null}
- -t 0.04406133552271 -s 3 -d 2 -p rtProtoDV -e 6 -c 0 -i 33 -a 0 -x {3.1 2.1 -1 ------- null}
h -t 0.04406133552271 -s 3 -d 2 -p rtProtoDV -e 6 -c 0 -i 33 -a 0 -x {3.1 2.1 -1 ------- null}
+ -t 0.04406133552271 -s 3 -d 4 -p rtProtoDV -e 6 -c 0 -i 34 -a 0 -x {3.1 4.1 -1 ------- null}
- -t 0.04406133552271 -s 3 -d 4 -p rtProtoDV -e 6 -c 0 -i 34 -a 0 -x {3.1 4.1 -1 ------- null}
h -t 0.04406133552271 -s 3 -d 4 -p rtProtoDV -e 6 -c 0 -i 34 -a 0 -x {3.1 4.1 -1 ------- null}
+ -t 0.04406133552271 -s 3 -d 5 -p rtProtoDV -e 6 -c 0 -i 35 -a 0 -x {3.1 5.2 -1 ------- null}
- -t 0.04406133552271 -s 3 -d 5 -p rtProtoDV -e 6 -c 0 -i 35 -a 0 -x {3.1 5.2 -1 ------- null}
h -t 0.04406133552271 -s 3 -d 5 -p rtProtoDV -e 6 -c 0 -i 35 -a 0 -x {3.1 5.2 -1 ------- null}
r -t 0.05410933552271 -s 3 -d 2 -p rtProtoDV -e 6 -c 0 -i 33 -a 0 -x {3.1 2.1 -1 ------- null}
r -t 0.05410933552271 -s 3 -d 4 -p rtProtoDV -e 6 -c 0 -i 34 -a 0 -x {3.1 4.1 -1 ------- null}
r -t 0.05410933552271 -s 3 -d 5 -p rtProtoDV -e 6 -c 0 -i 35 -a 0 -x {3.1 5.2 -1 ------- null}
+ -t 0.1 -s 0 -d 1 -p tcp -e 40 -c 1 -i 36 -a 1 -x {0.0 5.0 0 ------- null}
- -t 0.1 -s 0 -d 1 -p tcp -e 40 -c 1 -i 36 -a 1 -x {0.0 5.0 0 ------- null}
h -t 0.1 -s 0 -d 1 -p tcp -e 40 -c 1 -i 36 -a 1 -x {0.0 5.0 -1 ------- null}
r -t 0.10232 -s 0 -d 1 -p tcp -e 40 -c 1 -i 36 -a 1 -x {0.0 5.0 0 ------- null}
+ -t 0.10232 -s 1 -d 4 -p tcp -e 40 -c 1 -i 36 -a 1 -x {0.0 5.0 0 ------- null}
- -t 0.10232 -s 1 -d 4 -p tcp -e 40 -c 1 -i 36 -a 1 -x {0.0 5.0 0 ------- null}
h -t 0.10232 -s 1 -d 4 -p tcp -e 40 -c 1 -i 36 -a 1 -x {0.0 5.0 -1 ------- null}
r -t 0.10464 -s 1 -d 4 -p tcp -e 40 -c 1 -i 36 -a 1 -x {0.0 5.0 0 ------- null}
+ -t 0.10464 -s 4 -d 5 -p tcp -e 40 -c 1 -i 36 -a 1 -x {0.0 5.0 0 ------- null}
- -t 0.10464 -s 4 -d 5 -p tcp -e 40 -c 1 -i 36 -a 1 -x {0.0 5.0 0 ------- null}
h -t 0.10464 -s 4 -d 5 -p tcp -e 40 -c 1 -i 36 -a 1 -x {0.0 5.0 -1 ------- null}
r -t 0.10796 -s 4 -d 5 -p tcp -e 40 -c 1 -i 36 -a 1 -x {0.0 5.0 0 ------- null}
+ -t 0.10796 -s 5 -d 4 -p ack -e 40 -c 1 -i 37 -a 1 -x {5.0 0.0 0 ------- null}
- -t 0.10796 -s 5 -d 4 -p ack -e 40 -c 1 -i 37 -a 1 -x {5.0 0.0 0 ------- null}
h -t 0.10796 -s 5 -d 4 -p ack -e 40 -c 1 -i 37 -a 1 -x {5.0 0.0 -1 ------- null}
r -t 0.11128 -s 5 -d 4 -p ack -e 40 -c 1 -i 37 -a 1 -x {5.0 0.0 0 ------- null}
+ -t 0.11128 -s 4 -d 1 -p ack -e 40 -c 1 -i 37 -a 1 -x {5.0 0.0 0 ------- null}
- -t 0.11128 -s 4 -d 1 -p ack -e 40 -c 1 -i 37 -a 1 -x {5.0 0.0 0 ------- null}
h -t 0.11128 -s 4 -d 1 -p ack -e 40 -c 1 -i 37 -a 1 -x {5.0 0.0 -1 ------- null}
r -t 0.1136 -s 4 -d 1 -p ack -e 40 -c 1 -i 37 -a 1 -x {5.0 0.0 0 ------- null}
+ -t 0.1136 -s 1 -d 0 -p ack -e 40 -c 1 -i 37 -a 1 -x {5.0 0.0 0 ------- null}
- -t 0.1136 -s 1 -d 0 -p ack -e 40 -c 1 -i 37 -a 1 -x {5.0 0.0 0 ------- null}
h -t 0.1136 -s 1 -d 0 -p ack -e 40 -c 1 -i 37 -a 1 -x {5.0 0.0 -1 ------- null}
r -t 0.11592 -s 1 -d 0 -p ack -e 40 -c 1 -i 37 -a 1 -x {5.0 0.0 0 ------- null}
+ -t 0.11592 -s 0 -d 1 -p tcp -e 1040 -c 1 -i 38 -a 1 -x {0.0 5.0 1 ------- null}
- -t 0.11592 -s 0 -d 1 -p tcp -e 1040 -c 1 -i 38 -a 1 -x {0.0 5.0 1 ------- null}
h -t 0.11592 -s 0 -d 1 -p tcp -e 1040 -c 1 -i 38 -a 1 -x {0.0 5.0 -1 ------- null}
+ -t 0.11592 -s 0 -d 1 -p tcp -e 1040 -c 1 -i 39 -a 1 -x {0.0 5.0 2 ------- null}
- -t 0.12424 -s 0 -d 1 -p tcp -e 1040 -c 1 -i 39 -a 1 -x {0.0 5.0 2 ------- null}
h -t 0.12424 -s 0 -d 1 -p tcp -e 1040 -c 1 -i 39 -a 1 -x {0.0 5.0 -1 ------- null}
r -t 0.12624 -s 0 -d 1 -p tcp -e 1040 -c 1 -i 38 -a 1 -x {0.0 5.0 1 ------- null}
+ -t 0.12624 -s 1 -d 4 -p tcp -e 1040 -c 1 -i 38 -a 1 -x {0.0 5.0 1 ------- null}
- -t 0.12624 -s 1 -d 4 -p tcp -e 1040 -c 1 -i 38 -a 1 -x {0.0 5.0 1 ------- null}
h -t 0.12624 -s 1 -d 4 -p tcp -e 1040 -c 1 -i 38 -a 1 -x {0.0 5.0 -1 ------- null}
r -t 0.13456 -s 0 -d 1 -p tcp -e 1040 -c 1 -i 39 -a 1 -x {0.0 5.0 2 ------- null}
+ -t 0.13456 -s 1 -d 4 -p tcp -e 1040 -c 1 -i 39 -a 1 -x {0.0 5.0 2 ------- null}
- -t 0.13456 -s 1 -d 4 -p tcp -e 1040 -c 1 -i 39 -a 1 -x {0.0 5.0 2 ------- null}
h -t 0.13456 -s 1 -d 4 -p tcp -e 1040 -c 1 -i 39 -a 1 -x {0.0 5.0 -1 ------- null}
r -t 0.13656 -s 1 -d 4 -p tcp -e 1040 -c 1 -i 38 -a 1 -x {0.0 5.0 1 ------- null}
+ -t 0.13656 -s 4 -d 5 -p tcp -e 1040 -c 1 -i 38 -a 1 -x {0.0 5.0 1 ------- null}
- -t 0.13656 -s 4 -d 5 -p tcp -e 1040 -c 1 -i 38 -a 1 -x {0.0 5.0 1 ------- null}
h -t 0.13656 -s 4 -d 5 -p tcp -e 1040 -c 1 -i 38 -a 1 -x {0.0 5.0 -1 ------- null}
r -t 0.14488 -s 1 -d 4 -p tcp -e 1040 -c 1 -i 39 -a 1 -x {0.0 5.0 2 ------- null}
+ -t 0.14488 -s 4 -d 5 -p tcp -e 1040 -c 1 -i 39 -a 1 -x {0.0 5.0 2 ------- null}
- -t 0.14488 -s 4 -d 5 -p tcp -e 1040 -c 1 -i 39 -a 1 -x {0.0 5.0 2 ------- null}
h -t 0.14488 -s 4 -d 5 -p tcp -e 1040 -c 1 -i 39 -a 1 -x {0.0 5.0 -1 ------- null}
r -t 0.14788 -s 4 -d 5 -p tcp -e 1040 -c 1 -i 38 -a 1 -x {0.0 5.0 1 ------- null}
+ -t 0.14788 -s 5 -d 4 -p ack -e 40 -c 1 -i 40 -a 1 -x {5.0 0.0 1 ------- null}
- -t 0.14788 -s 5 -d 4 -p ack -e 40 -c 1 -i 40 -a 1 -x {5.0 0.0 1 ------- null}
h -t 0.14788 -s 5 -d 4 -p ack -e 40 -c 1 -i 40 -a 1 -x {5.0 0.0 -1 ------- null}
r -t 0.1512 -s 5 -d 4 -p ack -e 40 -c 1 -i 40 -a 1 -x {5.0 0.0 1 ------- null}
+ -t 0.1512 -s 4 -d 1 -p ack -e 40 -c 1 -i 40 -a 1 -x {5.0 0.0 1 ------- null}
- -t 0.1512 -s 4 -d 1 -p ack -e 40 -c 1 -i 40 -a 1 -x {5.0 0.0 1 ------- null}
h -t 0.1512 -s 4 -d 1 -p ack -e 40 -c 1 -i 40 -a 1 -x {5.0 0.0 -1 ------- null}
r -t 0.15352 -s 4 -d 1 -p ack -e 40 -c 1 -i 40 -a 1 -x {5.0 0.0 1 ------- null}
+ -t 0.15352 -s 1 -d 0 -p ack -e 40 -c 1 -i 40 -a 1 -x {5.0 0.0 1 ------- null}
- -t 0.15352 -s 1 -d 0 -p ack -e 40 -c 1 -i 40 -a 1 -x {5.0 0.0 1 ------- null}
h -t 0.15352 -s 1 -d 0 -p ack -e 40 -c 1 -i 40 -a 1 -x {5.0 0.0 -1 ------- null}
r -t 0.15584 -s 1 -d 0 -p ack -e 40 -c 1 -i 40 -a 1 -x {5.0 0.0 1 ------- null}
+ -t 0.15584 -s 0 -d 1 -p tcp -e 1040 -c 1 -i 41 -a 1 -x {0.0 5.0 3 ------- null}
- -t 0.15584 -s 0 -d 1 -p tcp -e 1040 -c 1 -i 41 -a 1 -x {0.0 5.0 3 ------- null}
h -t 0.15584 -s 0 -d 1 -p tcp -e 1040 -c 1 -i 41 -a 1 -x {0.0 5.0 -1 ------- null}
+ -t 0.15584 -s 0 -d 1 -p tcp -e 1040 -c 1 -i 42 -a 1 -x {0.0 5.0 4 ------- null}
r -t 0.1562 -s 4 -d 5 -p tcp -e 1040 -c 1 -i 39 -a 1 -x {0.0 5.0 2 ------- null}
+ -t 0.1562 -s 5 -d 4 -p ack -e 40 -c 1 -i 43 -a 1 -x {5.0 0.0 2 ------- null}
- -t 0.1562 -s 5 -d 4 -p ack -e 40 -c 1 -i 43 -a 1 -x {5.0 0.0 2 ------- null}
h -t 0.1562 -s 5 -d 4 -p ack -e 40 -c 1 -i 43 -a 1 -x {5.0 0.0 -1 ------- null}
r -t 0.15952 -s 5 -d 4 -p ack -e 40 -c 1 -i 43 -a 1 -x {5.0 0.0 2 ------- null}
+ -t 0.15952 -s 4 -d 1 -p ack -e 40 -c 1 -i 43 -a 1 -x {5.0 0.0 2 ------- null}
- -t 0.15952 -s 4 -d 1 -p ack -e 40 -c 1 -i 43 -a 1 -x {5.0 0.0 2 ------- null}
h -t 0.15952 -s 4 -d 1 -p ack -e 40 -c 1 -i 43 -a 1 -x {5.0 0.0 -1 ------- null}
r -t 0.16184 -s 4 -d 1 -p ack -e 40 -c 1 -i 43 -a 1 -x {5.0 0.0 2 ------- null}
+ -t 0.16184 -s 1 -d 0 -p ack -e 40 -c 1 -i 43 -a 1 -x {5.0 0.0 2 ------- null}
- -t 0.16184 -s 1 -d 0 -p ack -e 40 -c 1 -i 43 -a 1 -x {5.0 0.0 2 ------- null}
h -t 0.16184 -s 1 -d 0 -p ack -e 40 -c 1 -i 43 -a 1 -x {5.0 0.0 -1 ------- null}
- -t 0.16416 -s 0 -d 1 -p tcp -e 1040 -c 1 -i 42 -a 1 -x {0.0 5.0 4 ------- null}
h -t 0.16416 -s 0 -d 1 -p tcp -e 1040 -c 1 -i 42 -a 1 -x {0.0 5.0 -1 ------- null}
r -t 0.16416 -s 1 -d 0 -p ack -e 40 -c 1 -i 43 -a 1 -x {5.0 0.0 2 ------- null}
+ -t 0.16416 -s 0 -d 1 -p tcp -e 1040 -c 1 -i 44 -a 1 -x {0.0 5.0 5 ------- null}
+ -t 0.16416 -s 0 -d 1 -p tcp -e 1040 -c 1 -i 45 -a 1 -x {0.0 5.0 6 ------- null}
r -t 0.16616 -s 0 -d 1 -p tcp -e 1040 -c 1 -i 41 -a 1 -x {0.0 5.0 3 ------- null}
+ -t 0.16616 -s 1 -d 4 -p tcp -e 1040 -c 1 -i 41 -a 1 -x {0.0 5.0 3 ------- null}
- -t 0.16616 -s 1 -d 4 -p tcp -e 1040 -c 1 -i 41 -a 1 -x {0.0 5.0 3 ------- null}
h -t 0.16616 -s 1 -d 4 -p tcp -e 1040 -c 1 -i 41 -a 1 -x {0.0 5.0 -1 ------- null}
- -t 0.17248 -s 0 -d 1 -p tcp -e 1040 -c 1 -i 44 -a 1 -x {0.0 5.0 5 ------- null}
h -t 0.17248 -s 0 -d 1 -p tcp -e 1040 -c 1 -i 44 -a 1 -x {0.0 5.0 -1 ------- null}
r -t 0.17448 -s 0 -d 1 -p tcp -e 1040 -c 1 -i 42 -a 1 -x {0.0 5.0 4 ------- null}
+ -t 0.17448 -s 1 -d 4 -p tcp -e 1040 -c 1 -i 42 -a 1 -x {0.0 5.0 4 ------- null}
- -t 0.17448 -s 1 -d 4 -p tcp -e 1040 -c 1 -i 42 -a 1 -x {0.0 5.0 4 ------- null}
h -t 0.17448 -s 1 -d 4 -p tcp -e 1040 -c 1 -i 42 -a 1 -x {0.0 5.0 -1 ------- null}
r -t 0.17648 -s 1 -d 4 -p tcp -e 1040 -c 1 -i 41 -a 1 -x {0.0 5.0 3 ------- null}
+ -t 0.17648 -s 4 -d 5 -p tcp -e 1040 -c 1 -i 41 -a 1 -x {0.0 5.0 3 ------- null}
- -t 0.17648 -s 4 -d 5 -p tcp -e 1040 -c 1 -i 41 -a 1 -x {0.0 5.0 3 ------- null}
h -t 0.17648 -s 4 -d 5 -p tcp -e 1040 -c 1 -i 41 -a 1 -x {0.0 5.0 -1 ------- null}
- -t 0.1808 -s 0 -d 1 -p tcp -e 1040 -c 1 -i 45 -a 1 -x {0.0 5.0 6 ------- null}
h -t 0.1808 -s 0 -d 1 -p tcp -e 1040 -c 1 -i 45 -a 1 -x {0.0 5.0 -1 ------- null}
r -t 0.1828 -s 0 -d 1 -p tcp -e 1040 -c 1 -i 44 -a 1 -x {0.0 5.0 5 ------- null}
+ -t 0.1828 -s 1 -d 4 -p tcp -e 1040 -c 1 -i 44 -a 1 -x {0.0 5.0 5 ------- null}
- -t 0.1828 -s 1 -d 4 -p tcp -e 1040 -c 1 -i 44 -a 1 -x {0.0 5.0 5 ------- null}
h -t 0.1828 -s 1 -d 4 -p tcp -e 1040 -c 1 -i 44 -a 1 -x {0.0 5.0 -1 ------- null}
r -t 0.1848 -s 1 -d 4 -p tcp -e 1040 -c 1 -i 42 -a 1 -x {0.0 5.0 4 ------- null}
+ -t 0.1848 -s 4 -d 5 -p tcp -e 1040 -c 1 -i 42 -a 1 -x {0.0 5.0 4 ------- null}
- -t 0.1848 -s 4 -d 5 -p tcp -e 1040 -c 1 -i 42 -a 1 -x {0.0 5.0 4 ------- null}
h -t 0.1848 -s 4 -d 5 -p tcp -e 1040 -c 1 -i 42 -a 1 -x {0.0 5.0 -1 ------- null}
r -t 0.1878 -s 4 -d 5 -p tcp -e 1040 -c 1 -i 41 -a 1 -x {0.0 5.0 3 ------- null}
+ -t 0.1878 -s 5 -d 4 -p ack -e 40 -c 1 -i 46 -a 1 -x {5.0 0.0 3 ------- null}
- -t 0.1878 -s 5 -d 4 -p ack -e 40 -c 1 -i 46 -a 1 -x {5.0 0.0 3 ------- null}
h -t 0.1878 -s 5 -d 4 -p ack -e 40 -c 1 -i 46 -a 1 -x {5.0 0.0 -1 ------- null}
r -t 0.19112 -s 0 -d 1 -p tcp -e 1040 -c 1 -i 45 -a 1 -x {0.0 5.0 6 ------- null}
+ -t 0.19112 -s 1 -d 4 -p tcp -e 1040 -c 1 -i 45 -a 1 -x {0.0 5.0 6 ------- null}
- -t 0.19112 -s 1 -d 4 -p tcp -e 1040 -c 1 -i 45 -a 1 -x {0.0 5.0 6 ------- null}
h -t 0.19112 -s 1 -d 4 -p tcp -e 1040 -c 1 -i 45 -a 1 -x {0.0 5.0 -1 ------- null}
r -t 0.19112 -s 5 -d 4 -p ack -e 40 -c 1 -i 46 -a 1 -x {5.0 0.0 3 ------- null}
+ -t 0.19112 -s 4 -d 1 -p ack -e 40 -c 1 -i 46 -a 1 -x {5.0 0.0 3 ------- null}
- -t 0.19112 -s 4 -d 1 -p ack -e 40 -c 1 -i 46 -a 1 -x {5.0 0.0 3 ------- null}
h -t 0.19112 -s 4 -d 1 -p ack -e 40 -c 1 -i 46 -a 1 -x {5.0 0.0 -1 ------- null}
r -t 0.19312 -s 1 -d 4 -p tcp -e 1040 -c 1 -i 44 -a 1 -x {0.0 5.0 5 ------- null}
+ -t 0.19312 -s 4 -d 5 -p tcp -e 1040 -c 1 -i 44 -a 1 -x {0.0 5.0 5 ------- null}
- -t 0.19312 -s 4 -d 5 -p tcp -e 1040 -c 1 -i 44 -a 1 -x {0.0 5.0 5 ------- null}
h -t 0.19312 -s 4 -d 5 -p tcp -e 1040 -c 1 -i 44 -a 1 -x {0.0 5.0 -1 ------- null}
r -t 0.19344 -s 4 -d 1 -p ack -e 40 -c 1 -i 46 -a 1 -x {5.0 0.0 3 ------- null}
+ -t 0.19344 -s 1 -d 0 -p ack -e 40 -c 1 -i 46 -a 1 -x {5.0 0.0 3 ------- null}
- -t 0.19344 -s 1 -d 0 -p ack -e 40 -c 1 -i 46 -a 1 -x {5.0 0.0 3 ------- null}
h -t 0.19344 -s 1 -d 0 -p ack -e 40 -c 1 -i 46 -a 1 -x {5.0 0.0 -1 ------- null}
r -t 0.19576 -s 1 -d 0 -p ack -e 40 -c 1 -i 46 -a 1 -x {5.0 0.0 3 ------- null}
+ -t 0.19576 -s 0 -d 1 -p tcp -e 1040 -c 1 -i 47 -a 1 -x {0.0 5.0 7 ------- null}
- -t 0.19576 -s 0 -d 1 -p tcp -e 1040 -c 1 -i 47 -a 1 -x {0.0 5.0 7 ------- null}
h -t 0.19576 -s 0 -d 1 -p tcp -e 1040 -c 1 -i 47 -a 1 -x {0.0 5.0 -1 ------- null}
+ -t 0.19576 -s 0 -d 1 -p tcp -e 1040 -c 1 -i 48 -a 1 -x {0.0 5.0 8 ------- null}
r -t 0.19612 -s 4 -d 5 -p tcp -e 1040 -c 1 -i 42 -a 1 -x {0.0 5.0 4 ------- null}
+ -t 0.19612 -s 5 -d 4 -p ack -e 40 -c 1 -i 49 -a 1 -x {5.0 0.0 4 ------- null}
- -t 0.19612 -s 5 -d 4 -p ack -e 40 -c 1 -i 49 -a 1 -x {5.0 0.0 4 ------- null}
h -t 0.19612 -s 5 -d 4 -p ack -e 40 -c 1 -i 49 -a 1 -x {5.0 0.0 -1 ------- null}
r -t 0.19944 -s 5 -d 4 -p ack -e 40 -c 1 -i 49 -a 1 -x {5.0 0.0 4 ------- null}
+ -t 0.19944 -s 4 -d 1 -p ack -e 40 -c 1 -i 49 -a 1 -x {5.0 0.0 4 ------- null}
- -t 0.19944 -s 4 -d 1 -p ack -e 40 -c 1 -i 49 -a 1 -x {5.0 0.0 4 ------- null}
h -t 0.19944 -s 4 -d 1 -p ack -e 40 -c 1 -i 49 -a 1 -x {5.0 0.0 -1 ------- null}
r -t 0.20144 -s 1 -d 4 -p tcp -e 1040 -c 1 -i 45 -a 1 -x {0.0 5.0 6 ------- null}
+ -t 0.20144 -s 4 -d 5 -p tcp -e 1040 -c 1 -i 45 -a 1 -x {0.0 5.0 6 ------- null}
- -t 0.20144 -s 4 -d 5 -p tcp -e 1040 -c 1 -i 45 -a 1 -x {0.0 5.0 6 ------- null}
h -t 0.20144 -s 4 -d 5 -p tcp -e 1040 -c 1 -i 45 -a 1 -x {0.0 5.0 -1 ------- null}
r -t 0.20176 -s 4 -d 1 -p ack -e 40 -c 1 -i 49 -a 1 -x {5.0 0.0 4 ------- null}
+ -t 0.20176 -s 1 -d 0 -p ack -e 40 -c 1 -i 49 -a 1 -x {5.0 0.0 4 ------- null}
- -t 0.20176 -s 1 -d 0 -p ack -e 40 -c 1 -i 49 -a 1 -x {5.0 0.0 4 ------- null}
h -t 0.20176 -s 1 -d 0 -p ack -e 40 -c 1 -i 49 -a 1 -x {5.0 0.0 -1 ------- null}
- -t 0.20408 -s 0 -d 1 -p tcp -e 1040 -c 1 -i 48 -a 1 -x {0.0 5.0 8 ------- null}
h -t 0.20408 -s 0 -d 1 -p tcp -e 1040 -c 1 -i 48 -a 1 -x {0.0 5.0 -1 ------- null}
r -t 0.20408 -s 1 -d 0 -p ack -e 40 -c 1 -i 49 -a 1 -x {5.0 0.0 4 ------- null}
+ -t 0.20408 -s 0 -d 1 -p tcp -e 1040 -c 1 -i 50 -a 1 -x {0.0 5.0 9 ------- null}
+ -t 0.20408 -s 0 -d 1 -p tcp -e 1040 -c 1 -i 51 -a 1 -x {0.0 5.0 10 ------- null}
r -t 0.20444 -s 4 -d 5 -p tcp -e 1040 -c 1 -i 44 -a 1 -x {0.0 5.0 5 ------- null}
+ -t 0.20444 -s 5 -d 4 -p ack -e 40 -c 1 -i 52 -a 1 -x {5.0 0.0 5 ------- null}
- -t 0.20444 -s 5 -d 4 -p ack -e 40 -c 1 -i 52 -a 1 -x {5.0 0.0 5 ------- null}
h -t 0.20444 -s 5 -d 4 -p ack -e 40 -c 1 -i 52 -a 1 -x {5.0 0.0 -1 ------- null}
r -t 0.20608 -s 0 -d 1 -p tcp -e 1040 -c 1 -i 47 -a 1 -x {0.0 5.0 7 ------- null}
+ -t 0.20608 -s 1 -d 4 -p tcp -e 1040 -c 1 -i 47 -a 1 -x {0.0 5.0 7 ------- null}
- -t 0.20608 -s 1 -d 4 -p tcp -e 1040 -c 1 -i 47 -a 1 -x {0.0 5.0 7 ------- null}
h -t 0.20608 -s 1 -d 4 -p tcp -e 1040 -c 1 -i 47 -a 1 -x {0.0 5.0 -1 ------- null}
r -t 0.20776 -s 5 -d 4 -p ack -e 40 -c 1 -i 52 -a 1 -x {5.0 0.0 5 ------- null}
+ -t 0.20776 -s 4 -d 1 -p ack -e 40 -c 1 -i 52 -a 1 -x {5.0 0.0 5 ------- null}
- -t 0.20776 -s 4 -d 1 -p ack -e 40 -c 1 -i 52 -a 1 -x {5.0 0.0 5 ------- null}
h -t 0.20776 -s 4 -d 1 -p ack -e 40 -c 1 -i 52 -a 1 -x {5.0 0.0 -1 ------- null}
r -t 0.21008 -s 4 -d 1 -p ack -e 40 -c 1 -i 52 -a 1 -x {5.0 0.0 5 ------- null}
+ -t 0.21008 -s 1 -d 0 -p ack -e 40 -c 1 -i 52 -a 1 -x {5.0 0.0 5 ------- null}
- -t 0.21008 -s 1 -d 0 -p ack -e 40 -c 1 -i 52 -a 1 -x {5.0 0.0 5 ------- null}
h -t 0.21008 -s 1 -d 0 -p ack -e 40 -c 1 -i 52 -a 1 -x {5.0 0.0 -1 ------- null}
- -t 0.2124 -s 0 -d 1 -p tcp -e 1040 -c 1 -i 50 -a 1 -x {0.0 5.0 9 ------- null}
h -t 0.2124 -s 0 -d 1 -p tcp -e 1040 -c 1 -i 50 -a 1 -x {0.0 5.0 -1 ------- null}
r -t 0.2124 -s 1 -d 0 -p ack -e 40 -c 1 -i 52 -a 1 -x {5.0 0.0 5 ------- null}
+ -t 0.2124 -s 0 -d 1 -p tcp -e 1040 -c 1 -i 53 -a 1 -x {0.0 5.0 11 ------- null}
+ -t 0.2124 -s 0 -d 1 -p tcp -e 1040 -c 1 -i 54 -a 1 -x {0.0 5.0 12 ------- null}
r -t 0.21276 -s 4 -d 5 -p tcp -e 1040 -c 1 -i 45 -a 1 -x {0.0 5.0 6 ------- null}
+ -t 0.21276 -s 5 -d 4 -p ack -e 40 -c 1 -i 55 -a 1 -x {5.0 0.0 6 ------- null}
- -t 0.21276 -s 5 -d 4 -p ack -e 40 -c 1 -i 55 -a 1 -x {5.0 0.0 6 ------- null}
h -t 0.21276 -s 5 -d 4 -p ack -e 40 -c 1 -i 55 -a 1 -x {5.0 0.0 -1 ------- null}
r -t 0.2144 -s 0 -d 1 -p tcp -e 1040 -c 1 -i 48 -a 1 -x {0.0 5.0 8 ------- null}
+ -t 0.2144 -s 1 -d 4 -p tcp -e 1040 -c 1 -i 48 -a 1 -x {0.0 5.0 8 ------- null}
- -t 0.2144 -s 1 -d 4 -p tcp -e 1040 -c 1 -i 48 -a 1 -x {0.0 5.0 8 ------- null}
h -t 0.2144 -s 1 -d 4 -p tcp -e 1040 -c 1 -i 48 -a 1 -x {0.0 5.0 -1 ------- null}
r -t 0.21608 -s 5 -d 4 -p ack -e 40 -c 1 -i 55 -a 1 -x {5.0 0.0 6 ------- null}
+ -t 0.21608 -s 4 -d 1 -p ack -e 40 -c 1 -i 55 -a 1 -x {5.0 0.0 6 ------- null}
- -t 0.21608 -s 4 -d 1 -p ack -e 40 -c 1 -i 55 -a 1 -x {5.0 0.0 6 ------- null}
h -t 0.21608 -s 4 -d 1 -p ack -e 40 -c 1 -i 55 -a 1 -x {5.0 0.0 -1 ------- null}
r -t 0.2164 -s 1 -d 4 -p tcp -e 1040 -c 1 -i 47 -a 1 -x {0.0 5.0 7 ------- null}
+ -t 0.2164 -s 4 -d 5 -p tcp -e 1040 -c 1 -i 47 -a 1 -x {0.0 5.0 7 ------- null}
- -t 0.2164 -s 4 -d 5 -p tcp -e 1040 -c 1 -i 47 -a 1 -x {0.0 5.0 7 ------- null}
h -t 0.2164 -s 4 -d 5 -p tcp -e 1040 -c 1 -i 47 -a 1 -x {0.0 5.0 -1 ------- null}