+ 0.1 0 2 tcp 40 ------- 0 0.0 3.1 0 0
- 0.1 0 2 tcp 40 ------- 0 0.0 3.1 0 0
r 0.10216 0 2 tcp 40 ------- 0 0.0 3.1 0 0
+ 0.10216 2 3 tcp 40 ------- 0 0.0 3.1 0 0
- 0.10216 2 3 tcp 40 ------- 0 0.0 3.1 0 0
r 0.11296 2 3 tcp 40 ------- 0 0.0 3.1 0 0
+ 0.11296 3 2 ack 40 ------- 0 3.1 0.0 0 1
- 0.11296 3 2 ack 40 ------- 0 3.1 0.0 0 1
r 0.12376 3 2 ack 40 ------- 0 3.1 0.0 0 1
+ 0.12376 2 0 ack 40 ------- 0 3.1 0.0 0 1
- 0.12376 2 0 ack 40 ------- 0 3.1 0.0 0 1
r 0.12592 2 0 ack 40 ------- 0 3.1 0.0 0 1
+ 0.12592 0 2 tcp 1040 ------- 0 0.0 3.1 1 2
- 0.12592 0 2 tcp 1040 ------- 0 0.0 3.1 1 2
+ 0.12592 0 2 tcp 1040 ------- 0 0.0 3.1 2 3
- 0.13008 0 2 tcp 1040 ------- 0 0.0 3.1 2 3
r 0.13208 0 2 tcp 1040 ------- 0 0.0 3.1 1 2
+ 0.13208 2 3 tcp 1040 ------- 0 0.0 3.1 1 2
- 0.13208 2 3 tcp 1040 ------- 0 0.0 3.1 1 2
r 0.13624 0 2 tcp 1040 ------- 0 0.0 3.1 2 3
+ 0.13624 2 3 tcp 1040 ------- 0 0.0 3.1 2 3
- 0.15288 2 3 tcp 1040 ------- 0 0.0 3.1 2 3
r 0.16288 2 3 tcp 1040 ------- 0 0.0 3.1 1 2
+ 0.16288 3 2 ack 40 ------- 0 3.1 0.0 1 4
- 0.16288 3 2 ack 40 ------- 0 3.1 0.0 1 4
r 0.17368 3 2 ack 40 ------- 0 3.1 0.0 1 4
+ 0.17368 2 0 ack 40 ------- 0 3.1 0.0 1 4
- 0.17368 2 0 ack 40 ------- 0 3.1 0.0 1 4
r 0.17584 2 0 ack 40 ------- 0 3.1 0.0 1 4
+ 0.17584 0 2 tcp 1040 ------- 0 0.0 3.1 3 5
- 0.17584 0 2 tcp 1040 ------- 0 0.0 3.1 3 5
+ 0.17584 0 2 tcp 1040 ------- 0 0.0 3.1 4 6
- 0.18 0 2 tcp 1040 ------- 0 0.0 3.1 4 6
r 0.182 0 2 tcp 1040 ------- 0 0.0 3.1 3 5
+ 0.182 2 3 tcp 1040 ------- 0 0.0 3.1 3 5
- 0.182 2 3 tcp 1040 ------- 0 0.0 3.1 3 5
r 0.18368 2 3 tcp 1040 ------- 0 0.0 3.1 2 3
+ 0.18368 3 2 ack 40 ------- 0 3.1 0.0 2 7
- 0.18368 3 2 ack 40 ------- 0 3.1 0.0 2 7
r 0.18616 0 2 tcp 1040 ------- 0 0.0 3.1 4 6
+ 0.18616 2 3 tcp 1040 ------- 0 0.0 3.1 4 6
r 0.19448 3 2 ack 40 ------- 0 3.1 0.0 2 7
+ 0.19448 2 0 ack 40 ------- 0 3.1 0.0 2 7
- 0.19448 2 0 ack 40 ------- 0 3.1 0.0 2 7
r 0.19664 2 0 ack 40 ------- 0 3.1 0.0 2 7
+ 0.19664 0 2 tcp 1040 ------- 0 0.0 3.1 5 8
- 0.19664 0 2 tcp 1040 ------- 0 0.0 3.1 5 8
+ 0.19664 0 2 tcp 1040 ------- 0 0.0 3.1 6 9
- 0.2008 0 2 tcp 1040 ------- 0 0.0 3.1 6 9
- 0.2028 2 3 tcp 1040 ------- 0 0.0 3.1 4 6
r 0.2028 0 2 tcp 1040 ------- 0 0.0 3.1 5 8
+ 0.2028 2 3 tcp 1040 ------- 0 0.0 3.1 5 8
r 0.20696 0 2 tcp 1040 ------- 0 0.0 3.1 6 9
+ 0.20696 2 3 tcp 1040 ------- 0 0.0 3.1 6 9
r 0.2128 2 3 tcp 1040 ------- 0 0.0 3.1 3 5
+ 0.2128 3 2 ack 40 ------- 0 3.1 0.0 3 10
- 0.2128 3 2 ack 40 ------- 0 3.1 0.0 3 10
- 0.2236 2 3 tcp 1040 ------- 0 0.0 3.1 5 8
r 0.2236 3 2 ack 40 ------- 0 3.1 0.0 3 10
+ 0.2236 2 0 ack 40 ------- 0 3.1 0.0 3 10
- 0.2236 2 0 ack 40 ------- 0 3.1 0.0 3 10
r 0.22576 2 0 ack 40 ------- 0 3.1 0.0 3 10
+ 0.22576 0 2 tcp 1040 ------- 0 0.0 3.1 7 11
- 0.22576 0 2 tcp 1040 ------- 0 0.0 3.1 7 11
+ 0.22576 0 2 tcp 1040 ------- 0 0.0 3.1 8 12
- 0.22992 0 2 tcp 1040 ------- 0 0.0 3.1 8 12
r 0.23192 0 2 tcp 1040 ------- 0 0.0 3.1 7 11
+ 0.23192 2 3 tcp 1040 ------- 0 0.0 3.1 7 11
r 0.2336 2 3 tcp 1040 ------- 0 0.0 3.1 4 6
+ 0.2336 3 2 ack 40 ------- 0 3.1 0.0 4 13
- 0.2336 3 2 ack 40 ------- 0 3.1 0.0 4 13
r 0.23608 0 2 tcp 1040 ------- 0 0.0 3.1 8 12
+ 0.23608 2 3 tcp 1040 ------- 0 0.0 3.1 8 12
- 0.2444 2 3 tcp 1040 ------- 0 0.0 3.1 6 9
r 0.2444 3 2 ack 40 ------- 0 3.1 0.0 4 13
+ 0.2444 2 0 ack 40 ------- 0 3.1 0.0 4 13
- 0.2444 2 0 ack 40 ------- 0 3.1 0.0 4 13
r 0.24656 2 0 ack 40 ------- 0 3.1 0.0 4 13
+ 0.24656 0 2 tcp 1040 ------- 0 0.0 3.1 9 14
- 0.24656 0 2 tcp 1040 ------- 0 0.0 3.1 9 14
+ 0.24656 0 2 tcp 1040 ------- 0 0.0 3.1 10 15
- 0.25072 0 2 tcp 1040 ------- 0 0.0 3.1 10 15
r 0.25272 0 2 tcp 1040 ------- 0 0.0 3.1 9 14
+ 0.25272 2 3 tcp 1040 ------- 0 0.0 3.1 9 14
r 0.2544 2 3 tcp 1040 ------- 0 0.0 3.1 5 8
+ 0.2544 3 2 ack 40 ------- 0 3.1 0.0 5 16
- 0.2544 3 2 ack 40 ------- 0 3.1 0.0 5 16
r 0.25688 0 2 tcp 1040 ------- 0 0.0 3.1 10 15
+ 0.25688 2 3 tcp 1040 ------- 0 0.0 3.1 10 15
- 0.2652 2 3 tcp 1040 ------- 0 0.0 3.1 7 11
r 0.2652 3 2 ack 40 ------- 0 3.1 0.0 5 16
+ 0.2652 2 0 ack 40 ------- 0 3.1 0.0 5 16
- 0.2652 2 0 ack 40 ------- 0 3.1 0.0 5 16
r 0.26736 2 0 ack 40 ------- 0 3.1 0.0 5 16
+ 0.26736 0 2 tcp 1040 ------- 0 0.0 3.1 11 17
- 0.26736 0 2 tcp 1040 ------- 0 0.0 3.1 11 17
+ 0.26736 0 2 tcp 1040 ------- 0 0.0 3.1 12 18
- 0.27152 0 2 tcp 1040 ------- 0 0.0 3.1 12 18
r 0.27352 0 2 tcp 1040 ------- 0 0.0 3.1 11 17
+ 0.27352 2 3 tcp 1040 ------- 0 0.0 3.1 11 17
r 0.2752 2 3 tcp 1040 ------- 0 0.0 3.1 6 9
+ 0.2752 3 2 ack 40 ------- 0 3.1 0.0 6 19
- 0.2752 3 2 ack 40 ------- 0 3.1 0.0 6 19
r 0.27768 0 2 tcp 1040 ------- 0 0.0 3.1 12 18
+ 0.27768 2 3 tcp 1040 ------- 0 0.0 3.1 12 18
- 0.286 2 3 tcp 1040 ------- 0 0.0 3.1 8 12
r 0.286 3 2 ack 40 ------- 0 3.1 0.0 6 19
+ 0.286 2 0 ack 40 ------- 0 3.1 0.0 6 19
- 0.286 2 0 ack 40 ------- 0 3.1 0.0 6 19
r 0.28816 2 0 ack 40 ------- 0 3.1 0.0 6 19
+ 0.28816 0 2 tcp 1040 ------- 0 0.0 3.1 13 20
- 0.28816 0 2 tcp 1040 ------- 0 0.0 3.1 13 20
+ 0.28816 0 2 tcp 1040 ------- 0 0.0 3.1 14 21
- 0.29232 0 2 tcp 1040 ------- 0 0.0 3.1 14 21
r 0.29432 0 2 tcp 1040 ------- 0 0.0 3.1 13 20
+ 0.29432 2 3 tcp 1040 ------- 0 0.0 3.1 13 20
r 0.296 2 3 tcp 1040 ------- 0 0.0 3.1 7 11
+ 0.296 3 2 ack 40 ------- 0 3.1 0.0 7 22
- 0.296 3 2 ack 40 ------- 0 3.1 0.0 7 22
r 0.29848 0 2 tcp 1040 ------- 0 0.0 3.1 14 21
+ 0.29848 2 3 tcp 1040 ------- 0 0.0 3.1 14 21
- 0.3068 2 3 tcp 1040 ------- 0 0.0 3.1 9 14
r 0.3068 3 2 ack 40 ------- 0 3.1 0.0 7 22
+ 0.3068 2 0 ack 40 ------- 0 3.1 0.0 7 22
- 0.3068 2 0 ack 40 ------- 0 3.1 0.0 7 22
r 0.30896 2 0 ack 40 ------- 0 3.1 0.0 7 22
+ 0.30896 0 2 tcp 1040 ------- 0 0.0 3.1 15 23
- 0.30896 0 2 tcp 1040 ------- 0 0.0 3.1 15 23
+ 0.30896 0 2 tcp 1040 ------- 0 0.0 3.1 16 24
- 0.31312 0 2 tcp 1040 ------- 0 0.0 3.1 16 24
r 0.31512 0 2 tcp 1040 ------- 0 0.0 3.1 15 23
+ 0.31512 2 3 tcp 1040 ------- 0 0.0 3.1 15 23
r 0.3168 2 3 tcp 1040 ------- 0 0.0 3.1 8 12
+ 0.3168 3 2 ack 40 ------- 0 3.1 0.0 8 25
- 0.3168 3 2 ack 40 ------- 0 3.1 0.0 8 25
r 0.31928 0 2 tcp 1040 ------- 0 0.0 3.1 16 24
+ 0.31928 2 3 tcp 1040 ------- 0 0.0 3.1 16 24
- 0.3276 2 3 tcp 1040 ------- 0 0.0 3.1 10 15
r 0.3276 3 2 ack 40 ------- 0 3.1 0.0 8 25
+ 0.3276 2 0 ack 40 ------- 0 3.1 0.0 8 25
- 0.3276 2 0 ack 40 ------- 0 3.1 0.0 8 25
r 0.32976 2 0 ack 40 ------- 0 3.1 0.0 8 25
+ 0.32976 0 2 tcp 1040 ------- 0 0.0 3.1 17 26
- 0.32976 0 2 tcp 1040 ------- 0 0.0 3.1 17 26
+ 0.32976 0 2 tcp 1040 ------- 0 0.0 3.1 18 27
- 0.33392 0 2 tcp 1040 ------- 0 0.0 3.1 18 27
r 0.33592 0 2 tcp 1040 ------- 0 0.0 3.1 17 26
+ 0.33592 2 3 tcp 1040 ------- 0 0.0 3.1 17 26
r 0.3376 2 3 tcp 1040 ------- 0 0.0 3.1 9 14
+ 0.3376 3 2 ack 40 ------- 0 3.1 0.0 9 28
- 0.3376 3 2 ack 40 ------- 0 3.1 0.0 9 28
r 0.34008 0 2 tcp 1040 ------- 0 0.0 3.1 18 27
+ 0.34008 2 3 tcp 1040 ------- 0 0.0 3.1 18 27
- 0.3484 2 3 tcp 1040 ------- 0 0.0 3.1 11 17
r 0.3484 3 2 ack 40 ------- 0 3.1 0.0 9 28
+ 0.3484 2 0 ack 40 ------- 0 3.1 0.0 9 28
- 0.3484 2 0 ack 40 ------- 0 3.1 0.0 9 28
r 0.35056 2 0 ack 40 ------- 0 3.1 0.0 9 28
+ 0.35056 0 2 tcp 1040 ------- 0 0.0 3.1 19 29
- 0.35056 0 2 tcp 1040 ------- 0 0.0 3.1 19 29
+ 0.35056 0 2 tcp 1040 ------- 0 0.0 3.1 20 30
- 0.35472 0 2 tcp 1040 ------- 0 0.0 3.1 20 30
r 0.35672 0 2 tcp 1040 ------- 0 0.0 3.1 19 29
+ 0.35672 2 3 tcp 1040 ------- 0 0.0 3.1 19 29
r 0.3584 2 3 tcp 1040 ------- 0 0.0 3.1 10 15
+ 0.3584 3 2 ack 40 ------- 0 3.1 0.0 10 31
- 0.3584 3 2 ack 40 ------- 0 3.1 0.0 10 31
r 0.36088 0 2 tcp 1040 ------- 0 0.0 3.1 20 30
+ 0.36088 2 3 tcp 1040 ------- 0 0.0 3.1 20 30
- 0.3692 2 3 tcp 1040 ------- 0 0.0 3.1 12 18
r 0.3692 3 2 ack 40 ------- 0 3.1 0.0 10 31
+ 0.3692 2 0 ack 40 ------- 0 3.1 0.0 10 31
- 0.3692 2 0 ack 40 ------- 0 3.1 0.0 10 31
r 0.37136 2 0 ack 40 ------- 0 3.1 0.0 10 31
+ 0.37136 0 2 tcp 1040 ------- 0 0.0 3.1 21 32
- 0.37136 0 2 tcp 1040 ------- 0 0.0 3.1 21 32
+ 0.37136 0 2 tcp 1040 ------- 0 0.0 3.1 22 33
- 0.37552 0 2 tcp 1040 ------- 0 0.0 3.1 22 33
r 0.37752 0 2 tcp 1040 ------- 0 0.0 3.1 21 32
+ 0.37752 2 3 tcp 1040 ------- 0 0.0 3.1 21 32
r 0.3792 2 3 tcp 1040 ------- 0 0.0 3.1 11 17
+ 0.3792 3 2 ack 40 ------- 0 3.1 0.0 11 34
- 0.3792 3 2 ack 40 ------- 0 3.1 0.0 11 34
r 0.38168 0 2 tcp 1040 ------- 0 0.0 3.1 22 33
+ 0.38168 2 3 tcp 1040 ------- 0 0.0 3.1 22 33
- 0.39 2 3 tcp 1040 ------- 0 0.0 3.1 13 20
r 0.39 3 2 ack 40 ------- 0 3.1 0.0 11 34
+ 0.39 2 0 ack 40 ------- 0 3.1 0.0 11 34
- 0.39 2 0 ack 40 ------- 0 3.1 0.0 11 34
r 0.39216 2 0 ack 40 ------- 0 3.1 0.0 11 34
+ 0.39216 0 2 tcp 1040 ------- 0 0.0 3.1 23 35
- 0.39216 0 2 tcp 1040 ------- 0 0.0 3.1 23 35
+ 0.39216 0 2 tcp 1040 ------- 0 0.0 3.1 24 36
- 0.39632 0 2 tcp 1040 ------- 0 0.0 3.1 24 36
r 0.39832 0 2 tcp 1040 ------- 0 0.0 3.1 23 35
+ 0.39832 2 3 tcp 1040 ------- 0 0.0 3.1 23 35
r 0.4 2 3 tcp 1040 ------- 0 0.0 3.1 12 18
+ 0.4 3 2 ack 40 ------- 0 3.1 0.0 12 37
- 0.4 3 2 ack 40 ------- 0 3.1 0.0 12 37
r 0.40248 0 2 tcp 1040 ------- 0 0.0 3.1 24 36
+ 0.40248 2 3 tcp 1040 ------- 0 0.0 3.1 24 36
- 0.4108 2 3 tcp 1040 ------- 0 0.0 3.1 14 21
r 0.4108 3 2 ack 40 ------- 0 3.1 0.0 12 37
+ 0.4108 2 0 ack 40 ------- 0 3.1 0.0 12 37
- 0.4108 2 0 ack 40 ------- 0 3.1 0.0 12 37
r 0.41296 2 0 ack 40 ------- 0 3.1 0.0 12 37
+ 0.41296 0 2 tcp 1040 ------- 0 0.0 3.1 25 38
- 0.41296 0 2 tcp 1040 ------- 0 0.0 3.1 25 38
+ 0.41296 0 2 tcp 1040 ------- 0 0.0 3.1 26 39
- 0.41712 0 2 tcp 1040 ------- 0 0.0 3.1 26 39
r 0.41912 0 2 tcp 1040 ------- 0 0.0 3.1 25 38
+ 0.41912 2 3 tcp 1040 ------- 0 0.0 3.1 25 38
r 0.4208 2 3 tcp 1040 ------- 0 0.0 3.1 13 20
+ 0.4208 3 2 ack 40 ------- 0 3.1 0.0 13 40
- 0.4208 3 2 ack 40 ------- 0 3.1 0.0 13 40
r 0.42328 0 2 tcp 1040 ------- 0 0.0 3.1 26 39
+ 0.42328 2 3 tcp 1040 ------- 0 0.0 3.1 26 39
- 0.4316 2 3 tcp 1040 ------- 0 0.0 3.1 15 23
r 0.4316 3 2 ack 40 ------- 0 3.1 0.0 13 40
+ 0.4316 2 0 ack 40 ------- 0 3.1 0.0 13 40
- 0.4316 2 0 ack 40 ------- 0 3.1 0.0 13 40
r 0.43376 2 0 ack 40 ------- 0 3.1 0.0 13 40
+ 0.43376 0 2 tcp 1040 ------- 0 0.0 3.1 27 41
- 0.43376 0 2 tcp 1040 ------- 0 0.0 3.1 27 41
+ 0.43376 0 2 tcp 1040 ------- 0 0.0 3.1 28 42
- 0.43792 0 2 tcp 1040 ------- 0 0.0 3.1 28 42
r 0.43992 0 2 tcp 1040 ------- 0 0.0 3.1 27 41
+ 0.43992 2 3 tcp 1040 ------- 0 0.0 3.1 27 41
r 0.4416 2 3 tcp 1040 ------- 0 0.0 3.1 14 21
+ 0.4416 3 2 ack 40 ------- 0 3.1 0.0 14 43
- 0.4416 3 2 ack 40 ------- 0 3.1 0.0 14 43
r 0.44408 0 2 tcp 1040 ------- 0 0.0 3.1 28 42
+ 0.44408 2 3 tcp 1040 ------- 0 0.0 3.1 28 42
- 0.4524 2 3 tcp 1040 ------- 0 0.0 3.1 16 24
r 0.4524 3 2 ack 40 ------- 0 3.1 0.0 14 43
+ 0.4524 2 0 ack 40 ------- 0 3.1 0.0 14 43
- 0.4524 2 0 ack 40 ------- 0 3.1 0.0 14 43
r 0.45456 2 0 ack 40 ------- 0 3.1 0.0 14 43
+ 0.45456 0 2 tcp 1040 ------- 0 0.0 3.1 29 44
- 0.45456 0 2 tcp 1040 ------- 0 0.0 3.1 29 44
+ 0.45456 0 2 tcp 1040 ------- 0 0.0 3.1 30 45
- 0.45872 0 2 tcp 1040 ------- 0 0.0 3.1 30 45
r 0.46072 0 2 tcp 1040 ------- 0 0.0 3.1 29 44
+ 0.46072 2 3 tcp 1040 ------- 0 0.0 3.1 29 44
r 0.4624 2 3 tcp 1040 ------- 0 0.0 3.1 15 23
+ 0.4624 3 2 ack 40 ------- 0 3.1 0.0 15 46
- 0.4624 3 2 ack 40 ------- 0 3.1 0.0 15 46
r 0.46488 0 2 tcp 1040 ------- 0 0.0 3.1 30 45
+ 0.46488 2 3 tcp 1040 ------- 0 0.0 3.1 30 45
- 0.4732 2 3 tcp 1040 ------- 0 0.0 3.1 17 26
r 0.4732 3 2 ack 40 ------- 0 3.1 0.0 15 46
+ 0.4732 2 0 ack 40 ------- 0 3.1 0.0 15 46
- 0.4732 2 0 ack 40 ------- 0 3.1 0.0 15 46
r 0.47536 2 0 ack 40 ------- 0 3.1 0.0 15 46
+ 0.47536 0 2 tcp 1040 ------- 0 0.0 3.1 31 47
- 0.47536 0 2 tcp 1040 ------- 0 0.0 3.1 31 47
+ 0.47536 0 2 tcp 1040 ------- 0 0.0 3.1 32 48
- 0.47952 0 2 tcp 1040 ------- 0 0.0 3.1 32 48
r 0.48152 0 2 tcp 1040 ------- 0 0.0 3.1 31 47
+ 0.48152 2 3 tcp 1040 ------- 0 0.0 3.1 31 47
r 0.4832 2 3 tcp 1040 ------- 0 0.0 3.1 16 24
+ 0.4832 3 2 ack 40 ------- 0 3.1 0.0 16 49
- 0.4832 3 2 ack 40 ------- 0 3.1 0.0 16 49
r 0.48568 0 2 tcp 1040 ------- 0 0.0 3.1 32 48
+ 0.48568 2 3 tcp 1040 ------- 0 0.0 3.1 32 48
- 0.494 2 3 tcp 1040 ------- 0 0.0 3.1 18 27
r 0.494 3 2 ack 40 ------- 0 3.1 0.0 16 49
+ 0.494 2 0 ack 40 ------- 0 3.1 0.0 16 49
- 0.494 2 0 ack 40 ------- 0 3.1 0.0 16 49
r 0.49616 2 0 ack 40 ------- 0 3.1 0.0 16 49
+ 0.49616 0 2 tcp 1040 ------- 0 0.0 3.1 33 50
- 0.49616 0 2 tcp 1040 ------- 0 0.0 3.1 33 50
+ 0.49616 0 2 tcp 1040 ------- 0 0.0 3.1 34 51
- 0.50032 0 2 tcp 1040 ------- 0 0.0 3.1 34 51
r 0.50232 0 2 tcp 1040 ------- 0 0.0 3.1 33 50
+ 0.50232 2 3 tcp 1040 ------- 0 0.0 3.1 33 50
r 0.504 2 3 tcp 1040 ------- 0 0.0 3.1 17 26
+ 0.504 3 2 ack 40 ------- 0 3.1 0.0 17 52
- 0.504 3 2 ack 40 ------- 0 3.1 0.0 17 52
r 0.50648 0 2 tcp 1040 ------- 0 0.0 3.1 34 51
+ 0.50648 2 3 tcp 1040 ------- 0 0.0 3.1 34 51
- 0.5148 2 3 tcp 1040 ------- 0 0.0 3.1 19 29
r 0.5148 3 2 ack 40 ------- 0 3.1 0.0 17 52
+ 0.5148 2 0 ack 40 ------- 0 3.1 0.0 17 52
- 0.5148 2 0 ack 40 ------- 0 3.1 0.0 17 52
r 0.51696 2 0 ack 40 ------- 0 3.1 0.0 17 52
+ 0.51696 0 2 tcp 1040 ------- 0 0.0 3.1 35 53
- 0.51696 0 2 tcp 1040 ------- 0 0.0 3.1 35 53
+ 0.51696 0 2 tcp 1040 ------- 0 0.0 3.1 36 54
- 0.52112 0 2 tcp 1040 ------- 0 0.0 3.1 36 54
r 0.52312 0 2 tcp 1040 ------- 0 0.0 3.1 35 53
+ 0.52312 2 3 tcp 1040 ------- 0 0.0 3.1 35 53
r 0.5248 2 3 tcp 1040 ------- 0 0.0 3.1 18 27
+ 0.5248 3 2 ack 40 ------- 0 3.1 0.0 18 55
- 0.5248 3 2 ack 40 ------- 0 3.1 0.0 18 55
r 0.52728 0 2 tcp 1040 ------- 0 0.0 3.1 36 54
+ 0.52728 2 3 tcp 1040 ------- 0 0.0 3.1 36 54
- 0.5356 2 3 tcp 1040 ------- 0 0.0 3.1 20 30
r 0.5356 3 2 ack 40 ------- 0 3.1 0.0 18 55
+ 0.5356 2 0 ack 40 ------- 0 3.1 0.0 18 55
- 0.5356 2 0 ack 40 ------- 0 3.1 0.0 18 55
r 0.53776 2 0 ack 40 ------- 0 3.1 0.0 18 55
+ 0.53776 0 2 tcp 1040 ------- 0 0.0 3.1 37 56
- 0.53776 0 2 tcp 1040 ------- 0 0.0 3.1 37 56
+ 0.53776 0 2 tcp 1040 ------- 0 0.0 3.1 38 57
- 0.54192 0 2 tcp 1040 ------- 0 0.0 3.1 38 57
r 0.54392 0 2 tcp 1040 ------- 0 0.0 3.1 37 56
+ 0.54392 2 3 tcp 1040 ------- 0 0.0 3.1 37 56
r 0.5456 2 3 tcp 1040 ------- 0 0.0 3.1 19 29
+ 0.5456 3 2 ack 40 ------- 0 3.1 0.0 19 58
- 0.5456 3 2 ack 40 ------- 0 3.1 0.0 19 58
r 0.54808 0 2 tcp 1040 ------- 0 0.0 3.1 38 57
+ 0.54808 2 3 tcp 1040 ------- 0 0.0 3.1 38 57
- 0.5564 2 3 tcp 1040 ------- 0 0.0 3.1 21 32
r 0.5564 3 2 ack 40 ------- 0 3.1 0.0 19 58
+ 0.5564 2 0 ack 40 ------- 0 3.1 0.0 19 58
- 0.5564 2 0 ack 40 ------- 0 3.1 0.0 19 58
r 0.55856 2 0 ack 40 ------- 0 3.1 0.0 19 58
+ 0.55856 0 2 tcp 1040 ------- 0 0.0 3.1 39 59
- 0.55856 0 2 tcp 1040 ------- 0 0.0 3.1 39 59
r 0.56472 0 2 tcp 1040 ------- 0 0.0 3.1 39 59
+ 0.56472 2 3 tcp 1040 ------- 0 0.0 3.1 39 59
r 0.5664 2 3 tcp 1040 ------- 0 0.0 3.1 20 30
+ 0.5664 3 2 ack 40 ------- 0 3.1 0.0 20 60
- 0.5664 3 2 ack 40 ------- 0 3.1 0.0 20 60
- 0.5772 2 3 tcp 1040 ------- 0 0.0 3.1 22 33
r 0.5772 3 2 ack 40 ------- 0 3.1 0.0 20 60
+ 0.5772 2 0 ack 40 ------- 0 3.1 0.0 20 60
- 0.5772 2 0 ack 40 ------- 0 3.1 0.0 20 60
r 0.57936 2 0 ack 40 ------- 0 3.1 0.0 20 60
+ 0.57936 0 2 tcp 1040 ------- 0 0.0 3.1 40 61
- 0.57936 0 2 tcp 1040 ------- 0 0.0 3.1 40 61
r 0.58552 0 2 tcp 1040 ------- 0 0.0 3.1 40 61
+ 0.58552 2 3 tcp 1040 ------- 0 0.0 3.1 40 61
r 0.5872 2 3 tcp 1040 ------- 0 0.0 3.1 21 32
+ 0.5872 3 2 ack 40 ------- 0 3.1 0.0 21 62
- 0.5872 3 2 ack 40 ------- 0 3.1 0.0 21 62
- 0.598 2 3 tcp 1040 ------- 0 0.0 3.1 23 35
r 0.598 3 2 ack 40 ------- 0 3.1 0.0 21 62
+ 0.598 2 0 ack 40 ------- 0 3.1 0.0 21 62
- 0.598 2 0 ack 40 ------- 0 3.1 0.0 21 62
r 0.60016 2 0 ack 40 ------- 0 3.1 0.0 21 62
+ 0.60016 0 2 tcp 1040 ------- 0 0.0 3.1 41 63
- 0.60016 0 2 tcp 1040 ------- 0 0.0 3.1 41 63
r 0.60632 0 2 tcp 1040 ------- 0 0.0 3.1 41 63
+ 0.60632 2 3 tcp 1040 ------- 0 0.0 3.1 41 63
r 0.608 2 3 tcp 1040 ------- 0 0.0 3.1 22 33
+ 0.608 3 2 ack 40 ------- 0 3.1 0.0 22 64
- 0.608 3 2 ack 40 ------- 0 3.1 0.0 22 64
- 0.6188 2 3 tcp 1040 ------- 0 0.0 3.1 24 36
r 0.6188 3 2 ack 40 ------- 0 3.1 0.0 22 64
+ 0.6188 2 0 ack 40 ------- 0 3.1 0.0 22 64
- 0.6188 2 0 ack 40 ------- 0 3.1 0.0 22 64
r 0.62096 2 0 ack 40 ------- 0 3.1 0.0 22 64
+ 0.62096 0 2 tcp 1040 ------- 0 0.0 3.1 42 65
- 0.62096 0 2 tcp 1040 ------- 0 0.0 3.1 42 65
r 0.62712 0 2 tcp 1040 ------- 0 0.0 3.1 42 65
+ 0.62712 2 3 tcp 1040 ------- 0 0.0 3.1 42 65
r 0.6288 2 3 tcp 1040 ------- 0 0.0 3.1 23 35
+ 0.6288 3 2 ack 40 ------- 0 3.1 0.0 23 66
- 0.6288 3 2 ack 40 ------- 0 3.1 0.0 23 66
- 0.6396 2 3 tcp 1040 ------- 0 0.0 3.1 25 38
r 0.6396 3 2 ack 40 ------- 0 3.1 0.0 23 66
+ 0.6396 2 0 ack 40 ------- 0 3.1 0.0 23 66
- 0.6396 2 0 ack 40 ------- 0 3.1 0.0 23 66
r 0.64176 2 0 ack 40 ------- 0 3.1 0.0 23 66
+ 0.64176 0 2 tcp 1040 ------- 0 0.0 3.1 43 67
- 0.64176 0 2 tcp 1040 ------- 0 0.0 3.1 43 67
r 0.64792 0 2 tcp 1040 ------- 0 0.0 3.1 43 67
+ 0.64792 2 3 tcp 1040 ------- 0 0.0 3.1 43 67
r 0.6496 2 3 tcp 1040 ------- 0 0.0 3.1 24 36
+ 0.6496 3 2 ack 40 ------- 0 3.1 0.0 24 68
- 0.6496 3 2 ack 40 ------- 0 3.1 0.0 24 68
- 0.6604 2 3 tcp 1040 ------- 0 0.0 3.1 26 39
r 0.6604 3 2 ack 40 ------- 0 3.1 0.0 24 68
+ 0.6604 2 0 ack 40 ------- 0 3.1 0.0 24 68
- 0.6604 2 0 ack 40 ------- 0 3.1 0.0 24 68
r 0.66256 2 0 ack 40 ------- 0 3.1 0.0 24 68
+ 0.66256 0 2 tcp 1040 ------- 0 0.0 3.1 44 69
- 0.66256 0 2 tcp 1040 ------- 0 0.0 3.1 44 69
r 0.66872 0 2 tcp 1040 ------- 0 0.0 3.1 44 69
+ 0.66872 2 3 tcp 1040 ------- 0 0.0 3.1 44 69
r 0.6704 2 3 tcp 1040 ------- 0 0.0 3.1 25 38
+ 0.6704 3 2 ack 40 ------- 0 3.1 0.0 25 70
- 0.6704 3 2 ack 40 ------- 0 3.1 0.0 25 70
- 0.6812 2 3 tcp 1040 ------- 0 0.0 3.1 27 41
r 0.6812 3 2 ack 40 ------- 0 3.1 0.0 25 70
+ 0.6812 2 0 ack 40 ------- 0 3.1 0.0 25 70
- 0.6812 2 0 ack 40 ------- 0 3.1 0.0 25 70
r 0.68336 2 0 ack 40 ------- 0 3.1 0.0 25 70
+ 0.68336 0 2 tcp 1040 ------- 0 0.0 3.1 45 71
- 0.68336 0 2 tcp 1040 ------- 0 0.0 3.1 45 71
r 0.68952 0 2 tcp 1040 ------- 0 0.0 3.1 45 71
+ 0.68952 2 3 tcp 1040 ------- 0 0.0 3.1 45 71
r 0.6912 2 3 tcp 1040 ------- 0 0.0 3.1 26 39
+ 0.6912 3 2 ack 40 ------- 0 3.1 0.0 26 72
- 0.6912 3 2 ack 40 ------- 0 3.1 0.0 26 72
- 0.702 2 3 tcp 1040 ------- 0 0.0 3.1 28 42
r 0.702 3 2 ack 40 ------- 0 3.1 0.0 26 72
+ 0.702 2 0 ack 40 ------- 0 3.1 0.0 26 72
- 0.702 2 0 ack 40 ------- 0 3.1 0.0 26 72
r 0.70416 2 0 ack 40 ------- 0 3.1 0.0 26 72
+ 0.70416 0 2 tcp 1040 ------- 0 0.0 3.1 46 73
- 0.70416 0 2 tcp 1040 ------- 0 0.0 3.1 46 73
r 0.71032 0 2 tcp 1040 ------- 0 0.0 3.1 46 73
+ 0.71032 2 3 tcp 1040 ------- 0 0.0 3.1 46 73
r 0.712 2 3 tcp 1040 ------- 0 0.0 3.1 27 41
+ 0.712 3 2 ack 40 ------- 0 3.1 0.0 27 74
- 0.712 3 2 ack 40 ------- 0 3.1 0.0 27 74
- 0.7228 2 3 tcp 1040 ------- 0 0.0 3.1 29 44
r 0.7228 3 2 ack 40 ------- 0 3.1 0.0 27 74
+ 0.7228 2 0 ack 40 ------- 0 3.1 0.0 27 74
- 0.7228 2 0 ack 40 ------- 0 3.1 0.0 27 74
r 0.72496 2 0 ack 40 ------- 0 3.1 0.0 27 74
+ 0.72496 0 2 tcp 1040 ------- 0 0.0 3.1 47 75
- 0.72496 0 2 tcp 1040 ------- 0 0.0 3.1 47 75
r 0.73112 0 2 tcp 1040 ------- 0 0.0 3.1 47 75
+ 0.73112 2 3 tcp 1040 ------- 0 0.0 3.1 47 75
r 0.7328 2 3 tcp 1040 ------- 0 0.0 3.1 28 42
+ 0.7328 3 2 ack 40 ------- 0 3.1 0.0 28 76
- 0.7328 3 2 ack 40 ------- 0 3.1 0.0 28 76
- 0.7436 2 3 tcp 1040 ------- 0 0.0 3.1 30 45
r 0.7436 3 2 ack 40 ------- 0 3.1 0.0 28 76
+ 0.7436 2 0 ack 40 ------- 0 3.1 0.0 28 76
- 0.7436 2 0 ack 40 ------- 0 3.1 0.0 28 76
r 0.74576 2 0 ack 40 ------- 0 3.1 0.0 28 76
+ 0.74576 0 2 tcp 1040 ------- 0 0.0 3.1 48 77
- 0.74576 0 2 tcp 1040 ------- 0 0.0 3.1 48 77
r 0.75192 0 2 tcp 1040 ------- 0 0.0 3.1 48 77
+ 0.75192 2 3 tcp 1040 ------- 0 0.0 3.1 48 77
r 0.7536 2 3 tcp 1040 ------- 0 0.0 3.1 29 44
+ 0.7536 3 2 ack 40 ------- 0 3.1 0.0 29 78
- 0.7536 3 2 ack 40 ------- 0 3.1 0.0 29 78
- 0.7644 2 3 tcp 1040 ------- 0 0.0 3.1 31 47
r 0.7644 3 2 ack 40 ------- 0 3.1 0.0 29 78
+ 0.7644 2 0 ack 40 ------- 0 3.1 0.0 29 78
- 0.7644 2 0 ack 40 ------- 0 3.1 0.0 29 78
r 0.76656 2 0 ack 40 ------- 0 3.1 0.0 29 78
+ 0.76656 0 2 tcp 1040 ------- 0 0.0 3.1 49 79
- 0.76656 0 2 tcp 1040 ------- 0 0.0 3.1 49 79
r 0.77272 0 2 tcp 1040 ------- 0 0.0 3.1 49 79
+ 0.77272 2 3 tcp 1040 ------- 0 0.0 3.1 49 79
r 0.7744 2 3 tcp 1040 ------- 0 0.0 3.1 30 45
+ 0.7744 3 2 ack 40 ------- 0 3.1 0.0 30 80
- 0.7744 3 2 ack 40 ------- 0 3.1 0.0 30 80
- 0.7852 2 3 tcp 1040 ------- 0 0.0 3.1 32 48
r 0.7852 3 2 ack 40 ------- 0 3.1 0.0 30 80
+ 0.7852 2 0 ack 40 ------- 0 3.1 0.0 30 80
- 0.7852 2 0 ack 40 ------- 0 3.1 0.0 30 80
r 0.78736 2 0 ack 40 ------- 0 3.1 0.0 30 80
+ 0.78736 0 2 tcp 1040 ------- 0 0.0 3.1 50 81
- 0.78736 0 2 tcp 1040 ------- 0 0.0 3.1 50 81
r 0.79352 0 2 tcp 1040 ------- 0 0.0 3.1 50 81
+ 0.79352 2 3 tcp 1040 ------- 0 0.0 3.1 50 81
r 0.7952 2 3 tcp 1040 ------- 0 0.0 3.1 31 47
+ 0.7952 3 2 ack 40 ------- 0 3.1 0.0 31 82
- 0.7952 3 2 ack 40 ------- 0 3.1 0.0 31 82
- 0.806 2 3 tcp 1040 ------- 0 0.0 3.1 33 50
r 0.806 3 2 ack 40 ------- 0 3.1 0.0 31 82
+ 0.806 2 0 ack 40 ------- 0 3.1 0.0 31 82
- 0.806 2 0 ack 40 ------- 0 3.1 0.0 31 82
r 0.80816 2 0 ack 40 ------- 0 3.1 0.0 31 82
+ 0.80816 0 2 tcp 1040 ------- 0 0.0 3.1 51 83
- 0.80816 0 2 tcp 1040 ------- 0 0.0 3.1 51 83
r 0.81432 0 2 tcp 1040 ------- 0 0.0 3.1 51 83
+ 0.81432 2 3 tcp 1040 ------- 0 0.0 3.1 51 83
r 0.816 2 3 tcp 1040 ------- 0 0.0 3.1 32 48
+ 0.816 3 2 ack 40 ------- 0 3.1 0.0 32 84
- 0.816 3 2 ack 40 ------- 0 3.1 0.0 32 84
- 0.8268 2 3 tcp 1040 ------- 0 0.0 3.1 34 51
r 0.8268 3 2 ack 40 ------- 0 3.1 0.0 32 84
+ 0.8268 2 0 ack 40 ------- 0 3.1 0.0 32 84
- 0.8268 2 0 ack 40 ------- 0 3.1 0.0 32 84
r 0.82896 2 0 ack 40 ------- 0 3.1 0.0 32 84
+ 0.82896 0 2 tcp 1040 ------- 0 0.0 3.1 52 85
- 0.82896 0 2 tcp 1040 ------- 0 0.0 3.1 52 85
r 0.83512 0 2 tcp 1040 ------- 0 0.0 3.1 52 85
+ 0.83512 2 3 tcp 1040 ------- 0 0.0 3.1 52 85
r 0.8368 2 3 tcp 1040 ------- 0 0.0 3.1 33 50
+ 0.8368 3 2 ack 40 ------- 0 3.1 0.0 33 86
- 0.8368 3 2 ack 40 ------- 0 3.1 0.0 33 86
- 0.8476 2 3 tcp 1040 ------- 0 0.0 3.1 35 53
r 0.8476 3 2 ack 40 ------- 0 3.1 0.0 33 86
+ 0.8476 2 0 ack 40 ------- 0 3.1 0.0 33 86
- 0.8476 2 0 ack 40 ------- 0 3.1 0.0 33 86
r 0.84976 2 0 ack 40 ------- 0 3.1 0.0 33 86
+ 0.84976 0 2 tcp 1040 ------- 0 0.0 3.1 53 87
- 0.84976 0 2 tcp 1040 ------- 0 0.0 3.1 53 87
r 0.85592 0 2 tcp 1040 ------- 0 0.0 3.1 53 87
+ 0.85592 2 3 tcp 1040 ------- 0 0.0 3.1 53 87
r 0.8576 2 3 tcp 1040 ------- 0 0.0 3.1 34 51
+ 0.8576 3 2 ack 40 ------- 0 3.1 0.0 34 88
- 0.8576 3 2 ack 40 ------- 0 3.1 0.0 34 88
- 0.8684 2 3 tcp 1040 ------- 0 0.0 3.1 36 54
r 0.8684 3 2 ack 40 ------- 0 3.1 0.0 34 88
+ 0.8684 2 0 ack 40 ------- 0 3.1 0.0 34 88
- 0.8684 2 0 ack 40 ------- 0 3.1 0.0 34 88
r 0.87056 2 0 ack 40 ------- 0 3.1 0.0 34 88
+ 0.87056 0 2 tcp 1040 ------- 0 0.0 3.1 54 89
- 0.87056 0 2 tcp 1040 ------- 0 0.0 3.1 54 89
r 0.87672 0 2 tcp 1040 ------- 0 0.0 3.1 54 89
+ 0.87672 2 3 tcp 1040 ------- 0 0.0 3.1 54 89
r 0.8784 2 3 tcp 1040 ------- 0 0.0 3.1 35 53
+ 0.8784 3 2 ack 40 ------- 0 3.1 0.0 35 90
- 0.8784 3 2 ack 40 ------- 0 3.1 0.0 35 90
- 0.8892 2 3 tcp 1040 ------- 0 0.0 3.1 37 56
r 0.8892 3 2 ack 40 ------- 0 3.1 0.0 35 90
+ 0.8892 2 0 ack 40 ------- 0 3.1 0.0 35 90
- 0.8892 2 0 ack 40 ------- 0 3.1 0.0 35 90
r 0.89136 2 0 ack 40 ------- 0 3.1 0.0 35 90
+ 0.89136 0 2 tcp 1040 ------- 0 0.0 3.1 55 91
- 0.89136 0 2 tcp 1040 ------- 0 0.0 3.1 55 91
r 0.89752 0 2 tcp 1040 ------- 0 0.0 3.1 55 91
+ 0.89752 2 3 tcp 1040 ------- 0 0.0 3.1 55 91
r 0.8992 2 3 tcp 1040 ------- 0 0.0 3.1 36 54
+ 0.8992 3 2 ack 40 ------- 0 3.1 0.0 36 92
- 0.8992 3 2 ack 40 ------- 0 3.1 0.0 36 92
- 0.91 2 3 tcp 1040 ------- 0 0.0 3.1 38 57
r 0.91 3 2 ack 40 ------- 0 3.1 0.0 36 92
+ 0.91 2 0 ack 40 ------- 0 3.1 0.0 36 92
- 0.91 2 0 ack 40 ------- 0 3.1 0.0 36 92
r 0.91216 2 0 ack 40 ------- 0 3.1 0.0 36 92
+ 0.91216 0 2 tcp 1040 ------- 0 0.0 3.1 56 93
- 0.91216 0 2 tcp 1040 ------- 0 0.0 3.1 56 93
r 0.91832 0 2 tcp 1040 ------- 0 0.0 3.1 56 93
+ 0.91832 2 3 tcp 1040 ------- 0 0.0 3.1 56 93
r 0.92 2 3 tcp 1040 ------- 0 0.0 3.1 37 56
+ 0.92 3 2 ack 40 ------- 0 3.1 0.0 37 94
- 0.92 3 2 ack 40 ------- 0 3.1 0.0 37 94
- 0.9308 2 3 tcp 1040 ------- 0 0.0 3.1 39 59
r 0.9308 3 2 ack 40 ------- 0 3.1 0.0 37 94
+ 0.9308 2 0 ack 40 ------- 0 3.1 0.0 37 94
- 0.9308 2 0 ack 40 ------- 0 3.1 0.0 37 94
r 0.93296 2 0 ack 40 ------- 0 3.1 0.0 37 94
+ 0.93296 0 2 tcp 1040 ------- 0 0.0 3.1 57 95
- 0.93296 0 2 tcp 1040 ------- 0 0.0 3.1 57 95
r 0.93912 0 2 tcp 1040 ------- 0 0.0 3.1 57 95
+ 0.93912 2 3 tcp 1040 ------- 0 0.0 3.1 57 95
r 0.9408 2 3 tcp 1040 ------- 0 0.0 3.1 38 57
+ 0.9408 3 2 ack 40 ------- 0 3.1 0.0 38 96
- 0.9408 3 2 ack 40 ------- 0 3.1 0.0 38 96
- 0.9516 2 3 tcp 1040 ------- 0 0.0 3.1 40 61
r 0.9516 3 2 ack 40 ------- 0 3.1 0.0 38 96
+ 0.9516 2 0 ack 40 ------- 0 3.1 0.0 38 96
- 0.9516 2 0 ack 40 ------- 0 3.1 0.0 38 96
r 0.95376 2 0 ack 40 ------- 0 3.1 0.0 38 96
+ 0.95376 0 2 tcp 1040 ------- 0 0.0 3.1 58 97
- 0.95376 0 2 tcp 1040 ------- 0 0.0 3.1 58 97
r 0.95992 0 2 tcp 1040 ------- 0 0.0 3.1 58 97
+ 0.95992 2 3 tcp 1040 ------- 0 0.0 3.1 58 97
r 0.9616 2 3 tcp 1040 ------- 0 0.0 3.1 39 59
+ 0.9616 3 2 ack 40 ------- 0 3.1 0.0 39 98
- 0.9616 3 2 ack 40 ------- 0 3.1 0.0 39 98
- 0.9724 2 3 tcp 1040 ------- 0 0.0 3.1 41 63
r 0.9724 3 2 ack 40 ------- 0 3.1 0.0 39 98
+ 0.9724 2 0 ack 40 ------- 0 3.1 0.0 39 98
- 0.9724 2 0 ack 40 ------- 0 3.1 0.0 39 98
r 0.97456 2 0 ack 40 ------- 0 3.1 0.0 39 98
+ 0.97456 0 2 tcp 1040 ------- 0 0.0 3.1 59 99
- 0.97456 0 2 tcp 1040 ------- 0 0.0 3.1 59 99
r 0.98072 0 2 tcp 1040 ------- 0 0.0 3.1 59 99
+ 0.98072 2 3 tcp 1040 ------- 0 0.0 3.1 59 99
r 0.9824 2 3 tcp 1040 ------- 0 0.0 3.1 40 61
+ 0.9824 3 2 ack 40 ------- 0 3.1 0.0 40 100
- 0.9824 3 2 ack 40 ------- 0 3.1 0.0 40 100
- 0.9932 2 3 tcp 1040 ------- 0 0.0 3.1 42 65
r 0.9932 3 2 ack 40 ------- 0 3.1 0.0 40 100
+ 0.9932 2 0 ack 40 ------- 0 3.1 0.0 40 100
- 0.9932 2 0 ack 40 ------- 0 3.1 0.0 40 100
r 0.99536 2 0 ack 40 ------- 0 3.1 0.0 40 100
+ 0.99536 0 2 tcp 1040 ------- 0 0.0 3.1 60 101
- 0.99536 0 2 tcp 1040 ------- 0 0.0 3.1 60 101
r 1.00152 0 2 tcp 1040 ------- 0 0.0 3.1 60 101
+ 1.00152 2 3 tcp 1040 ------- 0 0.0 3.1 60 101
r 1.0032 2 3 tcp 1040 ------- 0 0.0 3.1 41 63
+ 1.0032 3 2 ack 40 ------- 0 3.1 0.0 41 102
- 1.0032 3 2 ack 40 ------- 0 3.1 0.0 41 102
- 1.014 2 3 tcp 1040 ------- 0 0.0 3.1 43 67
r 1.014 3 2 ack 40 ------- 0 3.1 0.0 41 102
+ 1.014 2 0 ack 40 ------- 0 3.1 0.0 41 102
- 1.014 2 0 ack 40 ------- 0 3.1 0.0 41 102
r 1.01616 2 0 ack 40 ------- 0 3.1 0.0 41 102
+ 1.01616 0 2 tcp 1040 ------- 0 0.0 3.1 61 103
- 1.01616 0 2 tcp 1040 ------- 0 0.0 3.1 61 103
r 1.02232 0 2 tcp 1040 ------- 0 0.0 3.1 61 103
+ 1.02232 2 3 tcp 1040 ------- 0 0.0 3.1 61 103
r 1.024 2 3 tcp 1040 ------- 0 0.0 3.1 42 65
+ 1.024 3 2 ack 40 ------- 0 3.1 0.0 42 104
- 1.024 3 2 ack 40 ------- 0 3.1 0.0 42 104
- 1.0348 2 3 tcp 1040 ------- 0 0.0 3.1 44 69
r 1.0348 3 2 ack 40 ------- 0 3.1 0.0 42 104
+ 1.0348 2 0 ack 40 ------- 0 3.1 0.0 42 104
- 1.0348 2 0 ack 40 ------- 0 3.1 0.0 42 104
r 1.03696 2 0 ack 40 ------- 0 3.1 0.0 42 104
+ 1.03696 0 2 tcp 1040 ------- 0 0.0 3.1 62 105
- 1.03696 0 2 tcp 1040 ------- 0 0.0 3.1 62 105
r 1.04312 0 2 tcp 1040 ------- 0 0.0 3.1 62 105
+ 1.04312 2 3 tcp 1040 ------- 0 0.0 3.1 62 105
r 1.0448 2 3 tcp 1040 ------- 0 0.0 3.1 43 67
+ 1.0448 3 2 ack 40 ------- 0 3.1 0.0 43 106
- 1.0448 3 2 ack 40 ------- 0 3.1 0.0 43 106
- 1.0556 2 3 tcp 1040 ------- 0 0.0 3.1 45 71
r 1.0556 3 2 ack 40 ------- 0 3.1 0.0 43 106
+ 1.0556 2 0 ack 40 ------- 0 3.1 0.0 43 106
- 1.0556 2 0 ack 40 ------- 0 3.1 0.0 43 106
r 1.05776 2 0 ack 40 ------- 0 3.1 0.0 43 106
+ 1.05776 0 2 tcp 1040 ------- 0 0.0 3.1 63 107
- 1.05776 0 2 tcp 1040 ------- 0 0.0 3.1 63 107
r 1.06392 0 2 tcp 1040 ------- 0 0.0 3.1 63 107
+ 1.06392 2 3 tcp 1040 ------- 0 0.0 3.1 63 107
r 1.0656 2 3 tcp 1040 ------- 0 0.0 3.1 44 69
+ 1.0656 3 2 ack 40 ------- 0 3.1 0.0 44 108
- 1.0656 3 2 ack 40 ------- 0 3.1 0.0 44 108
- 1.0764 2 3 tcp 1040 ------- 0 0.0 3.1 46 73
r 1.0764 3 2 ack 40 ------- 0 3.1 0.0 44 108
+ 1.0764 2 0 ack 40 ------- 0 3.1 0.0 44 108
- 1.0764 2 0 ack 40 ------- 0 3.1 0.0 44 108
r 1.07856 2 0 ack 40 ------- 0 3.1 0.0 44 108
+ 1.07856 0 2 tcp 1040 ------- 0 0.0 3.1 64 109
- 1.07856 0 2 tcp 1040 ------- 0 0.0 3.1 64 109
r 1.08472 0 2 tcp 1040 ------- 0 0.0 3.1 64 109
+ 1.08472 2 3 tcp 1040 ------- 0 0.0 3.1 64 109
r 1.0864 2 3 tcp 1040 ------- 0 0.0 3.1 45 71
+ 1.0864 3 2 ack 40 ------- 0 3.1 0.0 45 110
- 1.0864 3 2 ack 40 ------- 0 3.1 0.0 45 110
- 1.0972 2 3 tcp 1040 ------- 0 0.0 3.1 47 75
r 1.0972 3 2 ack 40 ------- 0 3.1 0.0 45 110
+ 1.0972 2 0 ack 40 ------- 0 3.1 0.0 45 110
- 1.0972 2 0 ack 40 ------- 0 3.1 0.0 45 110
r 1.09936 2 0 ack 40 ------- 0 3.1 0.0 45 110
+ 1.09936 0 2 tcp 1040 ------- 0 0.0 3.1 65 111
- 1.09936 0 2 tcp 1040 ------- 0 0.0 3.1 65 111
+ 1.1 1 2 cbr 210 ------- 0 1.0 3.0 0 112
- 1.1 1 2 cbr 210 ------- 0 1.0 3.0 0 112
r 1.10284 1 2 cbr 210 ------- 0 1.0 3.0 0 112
+ 1.10284 2 3 cbr 210 ------- 0 1.0 3.0 0 112
+ 1.10375 1 2 cbr 210 ------- 0 1.0 3.0 1 113
- 1.10375 1 2 cbr 210 ------- 0 1.0 3.0 1 113
r 1.10552 0 2 tcp 1040 ------- 0 0.0 3.1 65 111
+ 1.10552 2 3 tcp 1040 ------- 0 0.0 3.1 65 111
r 1.10659 1 2 cbr 210 ------- 0 1.0 3.0 1 113
+ 1.10659 2 3 cbr 210 ------- 0 1.0 3.0 1 113
r 1.1072 2 3 tcp 1040 ------- 0 0.0 3.1 46 73
+ 1.1072 3 2 ack 40 ------- 0 3.1 0.0 46 114
- 1.1072 3 2 ack 40 ------- 0 3.1 0.0 46 114
+ 1.1075 1 2 cbr 210 ------- 0 1.0 3.0 2 115
- 1.1075 1 2 cbr 210 ------- 0 1.0 3.0 2 115
r 1.11034 1 2 cbr 210 ------- 0 1.0 3.0 2 115
+ 1.11034 2 3 cbr 210 ------- 0 1.0 3.0 2 115
+ 1.11125 1 2 cbr 210 ------- 0 1.0 3.0 3 116
- 1.11125 1 2 cbr 210 ------- 0 1.0 3.0 3 116
r 1.11409 1 2 cbr 210 ------- 0 1.0 3.0 3 116
+ 1.11409 2 3 cbr 210 ------- 0 1.0 3.0 3 116
+ 1.115 1 2 cbr 210 ------- 0 1.0 3.0 4 117
- 1.115 1 2 cbr 210 ------- 0 1.0 3.0 4 117
r 1.11784 1 2 cbr 210 ------- 0 1.0 3.0 4 117
+ 1.11784 2 3 cbr 210 ------- 0 1.0 3.0 4 117
- 1.118 2 3 tcp 1040 ------- 0 0.0 3.1 48 77
r 1.118 3 2 ack 40 ------- 0 3.1 0.0 46 114
+ 1.118 2 0 ack 40 ------- 0 3.1 0.0 46 114
- 1.118 2 0 ack 40 ------- 0 3.1 0.0 46 114
+ 1.11875 1 2 cbr 210 ------- 0 1.0 3.0 5 118